
                                 *****************
                                 * O   R   C   A *
                                 *****************

                                            #,                                       
                                            ###                                      
                                            ####                                     
                                            #####                                    
                                            ######                                   
                                           ########,                                 
                                     ,,################,,,,,                         
                               ,,#################################,,                 
                          ,,##########################################,,             
                       ,#########################################, ''#####,          
                    ,#############################################,,   '####,        
                  ,##################################################,,,,####,       
                ,###########''''           ''''###############################       
              ,#####''   ,,,,##########,,,,          '''####'''          '####       
            ,##' ,,,,###########################,,,                        '##       
           ' ,,###''''                  '''############,,,                           
         ,,##''                                '''############,,,,        ,,,,,,###''
      ,#''                                            '''#######################'''  
     '                                                          ''''####''''         
             ,#######,   #######,   ,#######,      ##                                
            ,#'     '#,  ##    ##  ,#'     '#,    #''#        ,####,   ,####,        
            ##       ##  ##   ,#'  ##            #'  '#       #'       #'  '#        
            ##       ##  #######   ##           ,######,      #####,   #    #        
            '#,     ,#'  ##    ##  '#,     ,#' ,#      #,     #,   #   #,  ,#        
             '#######'   ##     ##  '#######'  #'      '#     '####' # '####'        



                #########################################################
                #                        -***-                          #
                #          Department of theory and spectroscopy        #
                #                                                       #
                #                      Frank Neese                      #
                #                                                       #
                #     Directorship, Architecture, Infrastructure        #
                #                    SHARK, DRIVERS                     #
                #        Core code/Algorithms in most modules           #
                #                                                       #
                #        Max Planck Institute fuer Kohlenforschung      #
                #                Kaiser Wilhelm Platz 1                 #
                #                 D-45470 Muelheim/Ruhr                 #
                #                      Germany                          #
                #                                                       #
                #                  All rights reserved                  #
                #                        -***-                          #
                #########################################################


                         Program Version 6.0.1  -  RELEASE   -


 With contributions from (in alphabetic order):
[Max-Planck-Institut fuer Kohlenforschung]                               
  Daniel Aravena         : Magnetic Suceptibility                        
  Michael Atanasov       : Ab Initio Ligand Field Theory (pilot matlab implementation)
  Alexander A. Auer      : GIAO ZORA, VPT2 properties, NMR spectrum      
  Ute Becker             : All parallelization in ORCA, NUMFREQ, NUMCALC 
  Giovanni Bistoni       : ED, misc. LED, open-shell LED, HFLD           
  Martin Brehm           : Molecular dynamics                            
  Dmytro Bykov           : pre 5.0 version of the SCF Hessian            
  Marcos Casanova-Páez   : Triplet and SCS-CIS(D). UHF-(DLPNO)-IP/EA/STEOM-CCSD. UHF-CVS-IP/STEOM-CCSD   
  Vijay G. Chilkuri      : MRCI spin determinant printing, contributions to CSF-ICE 
  Pauline Colinet        : FMM embedding                                 
  Dipayan Datta          : RHF DLPNO-CCSD density                        
  Achintya Kumar Dutta   : EOM-CC, STEOM-CC                              
  Nicolas Foglia         : Exact transition moments, OPA infrastructure, MCD improvements    
  Dmitry Ganyushin       : Spin-Orbit,Spin-Spin,Magnetic field MRCI      
  Miquel Garcia-Rates    : C-PCM and meta-GGA Hessian, CCSD/C-PCM, Gaussian charge scheme 
  Tiago L. C. Gouveia    : GS-ROHF, GS-ROCIS                             
  Yang Guo               : DLPNO-NEVPT2, F12-NEVPT2, CIM, IAO-localization        
  Andreas Hansen         : Spin unrestricted coupled pair/coupled cluster methods 
  Ingolf Harden          : AUTO-CI MPn and infrastructure                
  Benjamin Helmich-Paris : MC-RPA, TRAH-(SCF,CASSCF), AVAS, COSX integrals, SCF dyn. polar. 
  Lee Huntington         : MR-EOM, pCC                                   
  Robert Izsak           : Overlap fitted RIJCOSX, COSX-SCS-MP3, EOM     
  Riya Kayal             : Wick's Theorem for AUTO-CI, AUTO-CI UHF-CCSDT 
  Emily Kempfer          : AUTO-CI, RHF CISDT and CCSDT                  
  Christian Kollmar      : KDIIS, OOCD, Brueckner-CCSD(T), CCSD density, CASPT2, CASPT2-K, improved NEVPT2 
  Axel Koslowski         : Symmetry handling                             
  Simone Kossmann        : meta-GGA functionals, TD-DFT gradient, OOMP2, (MP2 Hessian; deprecated post 5.0) 
  Lucas Lang             : DCDCAS                                        
  Marvin Lechner         : AUTO-CI (C++ implementation), FIC-MRCC        
  Spencer Leger          : CASSCF response                               
  Dagmar Lenk            : GEPOL surface, SMD, ORCA-2-JSON               
  Dimitrios Liakos       : Extrapolation schemes; Compound Job, initial MDCI parallelization 
  Dimitrios Manganas     : Further ROCIS development; embedding schemes. LFT, Crystal Embedding 
  Dimitrios Pantazis     : SARC Basis sets                               
  Anastasios Papadopoulos: AUTO-CI, single reference methods and gradients 
  Taras Petrenko         : pre 6.0 DFT Hessian and TD-DFT gradient, (ASA, deprecated), ECA, 1-Electron XAS/XES, NRVS 
  Peter Pinski           : DLPNO-MP2, DLPNO-MP2 Gradient                 
  Christoph Reimann      : Effective Core Potentials                     
  Marius Retegan         : Local ZFS, SOC                                
  Christoph Riplinger    : Optimizer, TS searches, QM/MM, DLPNO-CCSD(T), (RO)-DLPNO pert. Triples 
  Michael Roemelt        : Original ROCIS implementation                 
  Masaaki Saitow         : Open-shell DLPNO-CCSD energy and density      
  Barbara Sandhoefer     : DKH picture change effects                    
  Kantharuban Sivalingam : CASSCF convergence/infrastructure, NEVPT2 and variants, FIC-MRCI 
  Bernardo de Souza      : ESD, SOC TD-DFT                               
  Georgi L. Stoychev     : AutoAux, RI-MP2 NMR, DLPNO-MP2 response, X2C  
  Van Anh Tran           : RI-MP2 g-tensors                              
  Willem Van den Heuvel  : Paramagnetic NMR                              
  Zikuan Wang            : NOTCH, Electric field optimization            
  Frank Wennmohs         : Technical directorship and infrastructure     
  Hang Xu                : AUTO-CI-Response properties                   
                                                                         
[FACCTs GmbH]                                                            
  Markus Bursch, Miquel Garcia-Rates, Christoph Riplinger, Bernardo de Souza, Georgi L. Stoychev 
                                                                 
  APM, Basis sets (HGBS, AHGBS, def-TZVP (Ac-Lr), def2-XVPD (La-Lu)), CI-OPT, improved COSX, DLPNO-Multilevel,           
  DOCKER, DRACO, updates on ESD, GOAT, IRC, LR-CPCM, MBIS, meta-GGA TD-DFT gradient, ML-optimized integration grids, 
  MM, NACMEs, nearIR, NEB, NEB-TS, NL-DFT gradient (VV10), 2- and 3-layer-ONIOM, interface openCOSMO-RS, QMMM,   
  Crystal-QMMM, SF, symmetry and pop. for TD-DFT, r2SCAN hybrids, SOLVATOR                                   
                                                                         
[Other institutions]                                                     
  V. Asgeirsson          : NEB                                           
  Christoph Bannwarth    : sTDA-DFT, sTD-DFT, PBEh-3c, B97-3c, D3        
  Sebastian Ehlert       : rSCAN, r2SCAN, r2SCAN-3c, D4, dhf basis sets  
  Marvin Friede          : D4 for Fr, Ra, Ac-Lr                          
  Lars Goerigk           : TD-DFT with DH, B97 family of functionals     
  Stefan Grimme          : VdW corrections, initial TS optimization, DFT functionals, gCP, sTDA/sTD-DF 
  Waldemar Hujo          : DFT-NL                                        
  H. Jonsson             : NEB                                           
  Holger Kruse           : gCP                                           
  Marcel Mueller         : wB97X-3c, vDZP basis set                      
  Hagen Neugebauer       : wr2SCAN                                       
  Tobias Risthaus        : range-separated hybrid DFT                    
  Lukas Wittmann         : regularized MP2, r2SCAN double-hybrids, wr2SCAN        
                                                                         
We gratefully acknowledge several colleagues who have allowed us to      
interface, adapt or use parts of their codes:                            
  Ed Valeev, F. Pavosevic, A. Kumar             : LibInt (2-el integral package), F12 methods 
  Garnet Chan, S. Sharma, J. Yang, R. Olivares  : DMRG                   
  Ulf Ekstrom                                   : XCFun DFT Library      
  Mihaly Kallay                                 : mrcc  (arbitrary order and MRCC methods)
  Frank Weinhold                                : gennbo (NPA and NBO analysis)           
  Simon Mueller                                 : openCOSMO-RS                            
  Christopher J. Cramer and Donald G. Truhlar   : smd solvation model                     
  S Lehtola, MJT Oliveira, MAL Marques          : LibXC Library                           
  Liviu Ungur et al                             : ANISO software                          


 Your calculation uses the libint2 library for the computation of 2-el integrals
 For citations please refer to: http://libint.valeyev.net

 Your ORCA version has been built with support for libXC version: 6.2.2
 For citations please refer to: https://libxc.gitlab.io

 This ORCA versions uses:
   CBLAS   interface :  Fast vector & matrix operations
   LAPACKE interface :  Fast linear algebra routines
   SCALAPACK package :  Parallel linear algebra routines
   Shared memory     :  Shared parallel matrices
   BLAS/LAPACK       :  OpenBLAS 0.3.27  USE64BITINT DYNAMIC_ARCH NO_AFFINITY Zen SINGLE_THREADED
        Core in use  :  Zen
   Copyright (c) 2011-2014, The OpenBLAS Project


================================================================================

----- Orbital basis set information -----
Your calculation utilizes the basis: def2-SVP
   F. Weigend and R. Ahlrichs, Phys. Chem. Chem. Phys. 7, 3297 (2005).

----- AuxJ basis set information -----
Your calculation utilizes the AutoAux generation procedure.
  G. L. Stoychev, A. A. Auer, F. Neese, J. Chem. Theory Comput. 13, 554 (2017)

----- AuxC basis set information -----
Your calculation utilizes the AutoAux generation procedure.
  G. L. Stoychev, A. A. Auer, F. Neese, J. Chem. Theory Comput. 13, 554 (2017)

----- AuxJK basis set information -----
Your calculation utilizes the AutoAux generation procedure.
  G. L. Stoychev, A. A. Auer, F. Neese, J. Chem. Theory Comput. 13, 554 (2017)

----- AuxX basis set information -----
Your calculation utilizes the AutoAux generation procedure.
  G. L. Stoychev, A. A. Auer, F. Neese, J. Chem. Theory Comput. 13, 554 (2017)

================================================================================
                                        WARNINGS
                       Please study these warnings very carefully!
================================================================================

WARNING: Gradients needed for Numerical Frequencies
  ===> : Setting RunTyp to EnGrad

WARNING: The environment variable RSH_COMMAND is not set!
  ===> : All Displacements for the Numerical Hessian or Gradient calculation
         will be started on localhost

================================================================================
                                       INPUT FILE
================================================================================
NAME = FMN_s0.inp
|  1> ! def2-SVP CPCM(water) autoaux numfreq
|  2> 
|  3> %pal nprocs 64 end
|  4> 
|  5> %casscf
|  6>  nel 6
|  7>  norb 6
|  8>  nroots 6
|  9>  mult 1
| 10>  iroot 0
| 11>  maxiter 1000
| 12> end
| 13> 
| 14> *xyz -2 1
| 15> 7       18.644411000     -0.146177000     11.328702000
| 16> 6       17.965059000     -1.003464000     10.322415000
| 17> 6       19.045668000     -1.493675000      9.322254000
| 18> 8       18.648620000     -1.896633000      8.237815000
| 19> 6       16.795504000     -0.222710000      9.724535000
| 20> 16      15.561993000     -1.224013000      8.859612000
| 21> 8       20.202169000     -1.451463000      9.746338000
| 22> 7       20.680499000      0.682571000      6.543678000
| 23> 6       21.077520000     -0.448228000      5.927557000
| 24> 8       22.217031000     -0.843400000      5.930175000
| 25> 7       20.126621000     -1.206155000      5.241733000
| 26> 6       18.798547000     -0.944396000      5.166284000
| 27> 8       18.007558000     -1.645836000      4.594523000
| 28> 6       18.423796000      0.295418000      5.832911000
| 29> 7       17.148339000      0.695953000      5.816539000
| 30> 6       16.739727000      1.828111000      6.423371000
| 31> 6       15.379676000      2.232838000      6.384470000
| 32> 6       14.958046000      3.362427000      7.005061000
| 33> 6       13.511557000      3.780344000      6.953022000
| 34> 6       15.932443000      4.163694000      7.728160000
| 35> 6       15.491920000      5.416015000      8.438866000
| 36> 6       17.248073000      3.783129000      7.769598000
| 37> 6       17.718216000      2.620353000      7.125362000
| 38> 7       19.034632000      2.207797000      7.136493000
| 39> 6       19.421618000      1.054092000      6.509684000
| 40> 6       20.074769000      3.002664000      7.805599000
| 41> 6       20.377293000      2.517154000      9.225951000
| 42> 8       19.201270000      2.392012000      9.987505000
| 43> 6       21.354745000      3.422982000      9.987284000
| 44> 8       20.711908000      4.619577000     10.351268000
| 45> 6       22.682769000      3.678778000      9.269160000
| 46> 8       23.220605000      2.477065000      8.814382000
| 47> 6       23.662328000      4.473561000     10.135505000
| 48> 8       23.859897000      3.949751000     11.409274000
| 49> 15      24.913582000      2.680335000     11.720260000
| 50> 8       24.892177000      2.591835000     13.220870000
| 51> 8       24.262931000      1.489034000     11.016857000
| 52> 8       26.228154000      3.088011000     11.103135000
| 53> 1       18.126557000     -0.066172000     12.192771000
| 54> 1       18.805006000      0.794117000     10.962376000
| 55> 1       17.596468000     -1.876910000     10.858915000
| 56> 1       16.268505000      0.292388000     10.529277000
| 57> 1       17.168531000      0.538951000      9.044070000
| 58> 1       16.483165000      0.117160000      5.332674000
| 59> 1       20.455398000     -2.048517000      4.807564000
| 60> 1       14.685608000      1.605187000      5.841420000
| 61> 1       12.928036000      3.067812000      6.372817000
| 62> 1       13.401914000      4.765111000      6.494867000
| 63> 1       13.081422000      3.838912000      7.954601000
| 64> 1       14.732925000      5.193400000      9.191619000
| 65> 1       15.051710000      6.129117000      7.738841000
| 66> 1       16.332803000      5.897858000      8.933660000
| 67> 1       17.930185000      4.397591000      8.329944000
| 68> 1       19.764724000      4.039716000      7.791153000
| 69> 1       20.972222000      2.919977000      7.207742000
| 70> 1       20.805029000      1.523452000      9.159412000
| 71> 1       18.969887000      3.239024000     10.349835000
| 72> 1       21.573038000      2.909166000     10.920826000
| 73> 1       20.716117000      5.240053000      9.635038000
| 74> 1       22.489160000      4.300657000      8.389050000
| 75> 1       23.596976000      2.001387000      9.576986000
| 76> 1       23.281110000      5.489722000     10.248249000
| 77> 1       24.607327000      4.535363000      9.589822000
| 78> 1       19.555830000     -0.547724000     11.517241000
| 79> *
| 80> 
| 81> 
| 82> 
| 83>                          ****END OF INPUT****
================================================================================

                     *******************************
                     * Energy+Gradient Calculation *
                     *******************************

---------------------------------
CARTESIAN COORDINATES (ANGSTROEM)
---------------------------------
  N     18.644411   -0.146177   11.328702
  C     17.965059   -1.003464   10.322415
  C     19.045668   -1.493675    9.322254
  O     18.648620   -1.896633    8.237815
  C     16.795504   -0.222710    9.724535
  S     15.561993   -1.224013    8.859612
  O     20.202169   -1.451463    9.746338
  N     20.680499    0.682571    6.543678
  C     21.077520   -0.448228    5.927557
  O     22.217031   -0.843400    5.930175
  N     20.126621   -1.206155    5.241733
  C     18.798547   -0.944396    5.166284
  O     18.007558   -1.645836    4.594523
  C     18.423796    0.295418    5.832911
  N     17.148339    0.695953    5.816539
  C     16.739727    1.828111    6.423371
  C     15.379676    2.232838    6.384470
  C     14.958046    3.362427    7.005061
  C     13.511557    3.780344    6.953022
  C     15.932443    4.163694    7.728160
  C     15.491920    5.416015    8.438866
  C     17.248073    3.783129    7.769598
  C     17.718216    2.620353    7.125362
  N     19.034632    2.207797    7.136493
  C     19.421618    1.054092    6.509684
  C     20.074769    3.002664    7.805599
  C     20.377293    2.517154    9.225951
  O     19.201270    2.392012    9.987505
  C     21.354745    3.422982    9.987284
  O     20.711908    4.619577   10.351268
  C     22.682769    3.678778    9.269160
  O     23.220605    2.477065    8.814382
  C     23.662328    4.473561   10.135505
  O     23.859897    3.949751   11.409274
  P     24.913582    2.680335   11.720260
  O     24.892177    2.591835   13.220870
  O     24.262931    1.489034   11.016857
  O     26.228154    3.088011   11.103135
  H     18.126557   -0.066172   12.192771
  H     18.805006    0.794117   10.962376
  H     17.596468   -1.876910   10.858915
  H     16.268505    0.292388   10.529277
  H     17.168531    0.538951    9.044070
  H     16.483165    0.117160    5.332674
  H     20.455398   -2.048517    4.807564
  H     14.685608    1.605187    5.841420
  H     12.928036    3.067812    6.372817
  H     13.401914    4.765111    6.494867
  H     13.081422    3.838912    7.954601
  H     14.732925    5.193400    9.191619
  H     15.051710    6.129117    7.738841
  H     16.332803    5.897858    8.933660
  H     17.930185    4.397591    8.329944
  H     19.764724    4.039716    7.791153
  H     20.972222    2.919977    7.207742
  H     20.805029    1.523452    9.159412
  H     18.969887    3.239024   10.349835
  H     21.573038    2.909166   10.920826
  H     20.716117    5.240053    9.635038
  H     22.489160    4.300657    8.389050
  H     23.596976    2.001387    9.576986
  H     23.281110    5.489722   10.248249
  H     24.607327    4.535363    9.589822
  H     19.555830   -0.547724   11.517241

----------------------------
CARTESIAN COORDINATES (A.U.)
----------------------------
  NO LB      ZA    FRAG     MASS         X           Y           Z
   0 N     7.0000    0    14.007   35.232831   -0.276234   21.408144
   1 C     6.0000    0    12.011   33.949041   -1.896272   19.506537
   2 C     6.0000    0    12.011   35.991097   -2.822637   17.616507
   3 O     8.0000    0    15.999   35.240785   -3.584117   15.567214
   4 C     6.0000    0    12.011   31.738903   -0.420861   18.376708
   5 S    16.0000    0    32.060   29.407905   -2.313049   16.742240
   6 O     8.0000    0    15.999   38.176567   -2.742868   18.417910
   7 N     7.0000    0    14.007   39.080479    1.289872   12.365759
   8 C     6.0000    0    12.011   39.830740   -0.847028   11.201459
   9 O     8.0000    0    15.999   41.984104   -1.593795   11.206407
  10 N     7.0000    0    14.007   38.033802   -2.279303    9.905440
  11 C     6.0000    0    12.011   35.524106   -1.784650    9.762862
  12 O     8.0000    0    15.999   34.029353   -3.110179    8.682390
  13 C     6.0000    0    12.011   34.815929    0.558259   11.022604
  14 N     7.0000    0    14.007   32.405664    1.315161   10.991666
  15 C     6.0000    0    12.011   31.633500    3.454629   12.138412
  16 C     6.0000    0    12.011   29.063376    4.219452   12.064900
  17 C     6.0000    0    12.011   28.266610    6.354066   13.237647
  18 C     6.0000    0    12.011   25.533142    7.143815   13.139307
  19 C     6.0000    0    12.011   30.107954    7.868241   14.604106
  20 C     6.0000    0    12.011   29.275486   10.234785   15.947146
  21 C     6.0000    0    12.011   32.594134    7.149078   14.682412
  22 C     6.0000    0    12.011   33.482576    4.951750   13.464983
  23 N     7.0000    0    14.007   35.970242    4.172132   13.486017
  24 C     6.0000    0    12.011   36.701539    1.991945   12.301520
  25 C     6.0000    0    12.011   37.935816    5.674213   14.750444
  26 C     6.0000    0    12.011   38.507503    4.756732   17.434521
  27 O     8.0000    0    15.999   36.285142    4.520248   18.873649
  28 C     6.0000    0    12.011   40.354620    6.468499   18.873232
  29 O     8.0000    0    15.999   39.139834    8.729735   19.561062
  30 C     6.0000    0    12.011   42.864221    6.951883   17.516174
  31 O     8.0000    0    15.999   43.880584    4.680974   16.656768
  32 C     6.0000    0    12.011   44.715320    8.453805   19.153329
  33 O     8.0000    0    15.999   45.088671    7.463948   21.560403
  34 P    15.0000    0    30.974   47.079847    5.065099   22.148082
  35 O     8.0000    0    15.999   47.039397    4.897858   24.983824
  36 O     8.0000    0    15.999   45.850295    2.813866   20.818843
  37 O     8.0000    0    15.999   49.564028    5.835495   20.981884
  38 H     1.0000    0     1.008   34.254228   -0.125047   23.040998
  39 H     1.0000    0     1.008   35.536311    1.500664   20.715888
  40 H     1.0000    0     1.008   33.252505   -3.546846   20.520375
  41 H     1.0000    0     1.008   30.743019    0.552533   19.897450
  42 H     1.0000    0     1.008   32.443822    1.018470   17.090815
  43 H     1.0000    0     1.008   31.148668    0.221400   10.077293
  44 H     1.0000    0     1.008   38.655100   -3.871136    9.084979
  45 H     1.0000    0     1.008   27.751777    3.033364   11.038684
  46 H     1.0000    0     1.008   24.430447    5.797325   12.042879
  47 H     1.0000    0     1.008   25.325947    9.004755   12.273520
  48 H     1.0000    0     1.008   24.720305    7.254492   15.032017
  49 H     1.0000    0     1.008   27.841193    9.814104   17.369643
  50 H     1.0000    0     1.008   28.443610   11.582353   14.624290
  51 H     1.0000    0     1.008   30.864525   11.145336   16.882171
  52 H     1.0000    0     1.008   33.883139    8.310243   15.741313
  53 H     1.0000    0     1.008   37.349915    7.633957   14.723145
  54 H     1.0000    0     1.008   39.631756    5.517957   13.620658
  55 H     1.0000    0     1.008   39.315807    2.878907   17.308780
  56 H     1.0000    0     1.008   35.847891    6.120868   19.558354
  57 H     1.0000    0     1.008   40.767134    5.497527   20.637370
  58 H     1.0000    0     1.008   39.147788    9.902265   18.207583
  59 H     1.0000    0     1.008   42.498353    8.127064   15.853007
  60 H     1.0000    0     1.008   44.591822    3.782073   18.097881
  61 H     1.0000    0     1.008   43.994922   10.374071   19.366384
  62 H     1.0000    0     1.008   46.501109    8.570594   18.122137
  63 H     1.0000    0     1.008   36.955163   -1.035048   21.764431

--------------------------------
INTERNAL COORDINATES (ANGSTROEM)
--------------------------------
 N      0   0   0     0.000000000000     0.00000000     0.00000000
 C      1   0   0     1.486295282453     0.00000000     0.00000000
 C      2   1   0     1.551884229356   107.47372720     0.00000000
 O      3   2   1     1.223123137214   116.70748623   199.39692548
 C      2   1   3     1.528036714527   108.66536784   233.44013057
 S      5   2   1     1.808935842107   115.22526129   197.30106761
 O      3   2   1     1.232527344525   114.88508661    20.97686212
 N      4   3   2     3.694715918582    89.88746282   120.90527499
 C      8   4   3     1.347567118730    77.63618949   126.84650245
 O      9   8   4     1.206089997732   123.52540117   239.92113302
 N      9   8   4     1.396071919532   118.65286050    60.22762293
 C     11   9   8     1.355725221112   126.13930260   357.42138486
 O     12  11   9     1.201911940552   123.95076014   182.17951969
 C     12  11   9     1.456697849153   113.00899276     3.20706882
 N     14  12  11     1.336969291890   119.65659131   178.65939397
 C     15  14  12     1.347957929511   122.36406367   179.51403869
 C     16  15  14     1.419526665805   121.16907955   179.69046650
 C     17  16  15     1.356051752369   121.52399950   179.24788744
 C     18  17  16     1.506550066719   120.91694860   179.89781914
 C     18  17  16     1.454080631430   118.57112454   359.71271475
 C     20  18  17     1.505812544444   119.79847127   180.60854775
 C     20  18  17     1.370193097329   120.35894530     0.40969466
 C     22  20  18     1.410007975269   122.36986374     0.10587406
 N     23  22  20     1.379593214449   124.13084626   179.58696234
 C      8   4   3     1.312998407325    71.46536719   255.31539951
 C     24  23  22     1.470170522659   121.13700672   357.91358746
 C     26  24  23     1.531221908993   112.98671043    96.47755458
 O     27  26  24     1.406646761490   111.42152707   308.69931021
 C     27  26  24     1.534784908310   113.50468660   185.93023816
 O     29  27  26     1.406258637253   109.84459636    72.77610704
 C     29  27  26     1.531267911754   114.72678480   305.48024723
 O     31  29  27     1.392912318328   110.11297087   311.85170789
 C     31  29  27     1.530284127407   112.11161565   185.53805711
 O     33  31  29     1.391365477228   114.43437192    51.52573248
 P     34  33  31     1.678803547911   122.91372657    81.66066119
 O     35  34  33     1.503369813494   102.73714973   173.86265845
 O     35  34  33     1.528829806359   103.70130785   292.87073483
 O     35  34  33     1.508357560323   105.47667300    52.04913179
 H      1   2   3     1.010538867190   112.97601992   201.74378576
 H      1   2   3     1.021830856227   111.09316048    79.78204935
 H      2   1   3     1.089311475289   106.48125790   114.88803242
 H      5   2   1     1.091175321463   108.80175572   316.82054643
 H      5   2   1     1.087340442490   109.88868243    73.96969217
 H     15  14  12     1.005774888009   117.67244284   359.78180637
 H     11   9   8     1.003080642488   116.44220216   180.92486140
 H     17  16  15     1.081933209087   117.57981245   359.36673182
 H     19  18  17     1.088501929484   110.58103022   359.84329740
 H     19  18  17     1.091647212135   111.17215530   239.58307461
 H     19  18  17     1.091607448715   111.19354194   120.11754457
 H     21  20  18     1.091910219413   111.04937078    59.27245054
 H     21  20  18     1.091940615203   111.00723932   300.17889488
 H     21  20  18     1.088153481258   110.90419147   179.74342818
 H     22  20  18     1.075559375257   117.77621179   180.99419030
 H     26  24  23     1.082503320847   108.01414544   332.16602292
 H     26  24  23     1.081523009292   107.10709719   216.44157235
 H     27  26  24     1.083895377341   108.16244603    65.25498043
 H     28  27  26     0.949868648674   109.31993516   276.39611373
 H     29  27  26     1.087731300216   105.94716861   186.56504014
 H     30  29  27     0.947625239827   111.06878278   277.04719278
 H     31  29  27     1.094902528823   108.57191983    68.94296666
 H     32  31  29     0.974417544044   108.34729987   284.41211813
 H     33  31  29     1.091156061698   108.57414016   291.07483511
 H     33  31  29     1.092983318122   107.46762981   175.05841158
 H      1   2   3     1.013642708893   107.96406171   322.92881718

---------------------------
INTERNAL COORDINATES (A.U.)
---------------------------
 N      0   0   0     0.000000000000     0.00000000     0.00000000
 C      1   0   0     2.808691037975     0.00000000     0.00000000
 C      2   1   0     2.932636185034   107.47372720     0.00000000
 O      3   2   1     2.311367757398   116.70748623   199.39692548
 C      2   1   3     2.887570913032   108.66536784   233.44013057
 S      5   2   1     3.418393335416   115.22526129   197.30106761
 O      3   2   1     2.329139133721   114.88508661    20.97686212
 N      4   3   2     6.982001228760    89.88746282   120.90527499
 C      8   4   3     2.546532801478    77.63618949   126.84650245
 O      9   8   4     2.279179788575   123.52540117   239.92113302
 N      9   8   4     2.638193591173   118.65286050    60.22762293
 C     11   9   8     2.561949380751   126.13930260   357.42138486
 O     12  11   9     2.271284404734   123.95076014   182.17951969
 C     12  11   9     2.752759994771   113.00899276     3.20706882
 N     14  12  11     2.526505811136   119.65659131   178.65939397
 C     15  14  12     2.547271326824   122.36406367   179.51403869
 C     16  15  14     2.682516638169   121.16907955   179.69046650
 C     17  16  15     2.562566435401   121.52399950   179.24788744
 C     18  17  16     2.846967033140   120.91694860   179.89781914
 C     18  17  16     2.747814170041   118.57112454   359.71271475
 C     20  18  17     2.845573318023   119.79847127   180.60854775
 C     20  18  17     2.589289704542   120.35894530     0.40969466
 C     22  20  18     2.664528919902   122.36986374     0.10587406
 N     23  22  20     2.607053351524   124.13084626   179.58696234
 C      8   4   3     2.481207404119    71.46536719   255.31539951
 C     24  23  22     2.778219657988   121.13700672   357.91358746
 C     26  24  23     2.893590058257   112.98671043    96.47755458
 O     27  26  24     2.658177146382   111.42152707   308.69931021
 C     27  26  24     2.900323151182   113.50468660   185.93023816
 O     29  27  26     2.657443697870   109.84459636    72.77610704
 C     29  27  26     2.893676990877   114.72678480   305.48024723
 O     31  29  27     2.632222810205   110.11297087   311.85170789
 C     31  29  27     2.891817907887   112.11161565   185.53805711
 O     33  31  29     2.629299704154   114.43437192    51.52573248
 P     34  33  31     3.172478938206   122.91372657    81.66066119
 O     35  34  33     2.840957225508   102.73714973   173.86265845
 O     35  34  33     2.889069639394   103.70130785   292.87073483
 O     35  34  33     2.850382701041   105.47667300    52.04913179
 H      1   2   3     1.909641706672   112.97601992   201.74378576
 H      1   2   3     1.930980473459   111.09316048    79.78204935
 H      2   1   3     2.058500362835   106.48125790   114.88803242
 H      5   2   1     2.062022521658   108.80175572   316.82054643
 H      5   2   1     2.054775650643   109.88868243    73.96969217
 H     15  14  12     1.900639090713   117.67244284   359.78180637
 H     11   9   8     1.895547704540   116.44220216   180.92486140
 H     17  16  15     2.044557460369   117.57981245   359.36673182
 H     19  18  17     2.056970542969   110.58103022   359.84329740
 H     19  18  17     2.062914265795   111.17215530   239.58307461
 H     19  18  17     2.062839123820   111.19354194   120.11754457
 H     21  20  18     2.063411277521   111.04937078    59.27245054
 H     21  20  18     2.063468717238   111.00723932   300.17889488
 H     21  20  18     2.056312071251   110.90419147   179.74342818
 H     22  20  18     2.032512660008   117.77621179   180.99419030
 H     26  24  23     2.045634815461   108.01414544   332.16602292
 H     26  24  23     2.043782295095   107.10709719   216.44157235
 H     27  26  24     2.048265420998   108.16244603    65.25498043
 H     28  27  26     1.794991609191   109.31993516   276.39611373
 H     29  27  26     2.055514264702   105.94716861   186.56504014
 H     30  29  27     1.790752180864   111.06878278   277.04719278
 H     31  29  27     2.069065922812   108.57191983    68.94296666
 H     32  31  29     1.841382298332   108.34729987   284.41211813
 H     33  31  29     2.061986125978   108.57414016   291.07483511
 H     33  31  29     2.065439140196   107.46762981   175.05841158
 H      1   2   3     1.915507117453   107.96406171   322.92881718

---------------------
BASIS SET INFORMATION
---------------------
There are 6 groups of distinct atoms

 Group   1 Type N   : 7s4p1d contracted to 3s2p1d pattern {511/31/1}
 Group   2 Type C   : 7s4p1d contracted to 3s2p1d pattern {511/31/1}
 Group   3 Type O   : 7s4p1d contracted to 3s2p1d pattern {511/31/1}
 Group   4 Type S   : 10s7p1d contracted to 4s3p1d pattern {5311/511/1}
 Group   5 Type P   : 10s7p1d contracted to 4s3p1d pattern {5311/511/1}
 Group   6 Type H   : 4s1p contracted to 2s1p pattern {31/1}

Atom   0N    basis set group =>   1
Atom   1C    basis set group =>   2
Atom   2C    basis set group =>   2
Atom   3O    basis set group =>   3
Atom   4C    basis set group =>   2
Atom   5S    basis set group =>   4
Atom   6O    basis set group =>   3
Atom   7N    basis set group =>   1
Atom   8C    basis set group =>   2
Atom   9O    basis set group =>   3
Atom  10N    basis set group =>   1
Atom  11C    basis set group =>   2
Atom  12O    basis set group =>   3
Atom  13C    basis set group =>   2
Atom  14N    basis set group =>   1
Atom  15C    basis set group =>   2
Atom  16C    basis set group =>   2
Atom  17C    basis set group =>   2
Atom  18C    basis set group =>   2
Atom  19C    basis set group =>   2
Atom  20C    basis set group =>   2
Atom  21C    basis set group =>   2
Atom  22C    basis set group =>   2
Atom  23N    basis set group =>   1
Atom  24C    basis set group =>   2
Atom  25C    basis set group =>   2
Atom  26C    basis set group =>   2
Atom  27O    basis set group =>   3
Atom  28C    basis set group =>   2
Atom  29O    basis set group =>   3
Atom  30C    basis set group =>   2
Atom  31O    basis set group =>   3
Atom  32C    basis set group =>   2
Atom  33O    basis set group =>   3
Atom  34P    basis set group =>   5
Atom  35O    basis set group =>   3
Atom  36O    basis set group =>   3
Atom  37O    basis set group =>   3
Atom  38H    basis set group =>   6
Atom  39H    basis set group =>   6
Atom  40H    basis set group =>   6
Atom  41H    basis set group =>   6
Atom  42H    basis set group =>   6
Atom  43H    basis set group =>   6
Atom  44H    basis set group =>   6
Atom  45H    basis set group =>   6
Atom  46H    basis set group =>   6
Atom  47H    basis set group =>   6
Atom  48H    basis set group =>   6
Atom  49H    basis set group =>   6
Atom  50H    basis set group =>   6
Atom  51H    basis set group =>   6
Atom  52H    basis set group =>   6
Atom  53H    basis set group =>   6
Atom  54H    basis set group =>   6
Atom  55H    basis set group =>   6
Atom  56H    basis set group =>   6
Atom  57H    basis set group =>   6
Atom  58H    basis set group =>   6
Atom  59H    basis set group =>   6
Atom  60H    basis set group =>   6
Atom  61H    basis set group =>   6
Atom  62H    basis set group =>   6
Atom  63H    basis set group =>   6
---------------------------------
AUXILIARY/J BASIS SET INFORMATION
---------------------------------
There are 6 groups of distinct atoms

 Group   1 Type N   : 14s11p10d2f contracted to 14s11p10d2f pattern {11111111111111/11111111111/1111111111/11}
 Group   2 Type C   : 14s11p10d2f contracted to 14s11p10d2f pattern {11111111111111/11111111111/1111111111/11}
 Group   3 Type O   : 14s11p10d2f contracted to 14s11p10d2f pattern {11111111111111/11111111111/1111111111/11}
 Group   4 Type S   : 17s14p13d4f contracted to 17s14p13d4f pattern {11111111111111111/11111111111111/1111111111111/1111}
 Group   5 Type P   : 17s14p13d4f contracted to 17s14p13d4f pattern {11111111111111111/11111111111111/1111111111111/1111}
 Group   6 Type H   : 9s2p1d contracted to 9s2p1d pattern {111111111/11/1}

Atom   0N    basis set group =>   1
Atom   1C    basis set group =>   2
Atom   2C    basis set group =>   2
Atom   3O    basis set group =>   3
Atom   4C    basis set group =>   2
Atom   5S    basis set group =>   4
Atom   6O    basis set group =>   3
Atom   7N    basis set group =>   1
Atom   8C    basis set group =>   2
Atom   9O    basis set group =>   3
Atom  10N    basis set group =>   1
Atom  11C    basis set group =>   2
Atom  12O    basis set group =>   3
Atom  13C    basis set group =>   2
Atom  14N    basis set group =>   1
Atom  15C    basis set group =>   2
Atom  16C    basis set group =>   2
Atom  17C    basis set group =>   2
Atom  18C    basis set group =>   2
Atom  19C    basis set group =>   2
Atom  20C    basis set group =>   2
Atom  21C    basis set group =>   2
Atom  22C    basis set group =>   2
Atom  23N    basis set group =>   1
Atom  24C    basis set group =>   2
Atom  25C    basis set group =>   2
Atom  26C    basis set group =>   2
Atom  27O    basis set group =>   3
Atom  28C    basis set group =>   2
Atom  29O    basis set group =>   3
Atom  30C    basis set group =>   2
Atom  31O    basis set group =>   3
Atom  32C    basis set group =>   2
Atom  33O    basis set group =>   3
Atom  34P    basis set group =>   5
Atom  35O    basis set group =>   3
Atom  36O    basis set group =>   3
Atom  37O    basis set group =>   3
Atom  38H    basis set group =>   6
Atom  39H    basis set group =>   6
Atom  40H    basis set group =>   6
Atom  41H    basis set group =>   6
Atom  42H    basis set group =>   6
Atom  43H    basis set group =>   6
Atom  44H    basis set group =>   6
Atom  45H    basis set group =>   6
Atom  46H    basis set group =>   6
Atom  47H    basis set group =>   6
Atom  48H    basis set group =>   6
Atom  49H    basis set group =>   6
Atom  50H    basis set group =>   6
Atom  51H    basis set group =>   6
Atom  52H    basis set group =>   6
Atom  53H    basis set group =>   6
Atom  54H    basis set group =>   6
Atom  55H    basis set group =>   6
Atom  56H    basis set group =>   6
Atom  57H    basis set group =>   6
Atom  58H    basis set group =>   6
Atom  59H    basis set group =>   6
Atom  60H    basis set group =>   6
Atom  61H    basis set group =>   6
Atom  62H    basis set group =>   6
Atom  63H    basis set group =>   6
---------------------------------
AUXILIARY/C BASIS SET INFORMATION
---------------------------------
There are 6 groups of distinct atoms

 Group   1 Type N   : 14s11p10d2f contracted to 14s11p10d2f pattern {11111111111111/11111111111/1111111111/11}
 Group   2 Type C   : 14s11p10d2f contracted to 14s11p10d2f pattern {11111111111111/11111111111/1111111111/11}
 Group   3 Type O   : 14s11p10d2f contracted to 14s11p10d2f pattern {11111111111111/11111111111/1111111111/11}
 Group   4 Type S   : 17s14p13d4f contracted to 17s14p13d4f pattern {11111111111111111/11111111111111/1111111111111/1111}
 Group   5 Type P   : 17s14p13d4f contracted to 17s14p13d4f pattern {11111111111111111/11111111111111/1111111111111/1111}
 Group   6 Type H   : 9s2p1d contracted to 9s2p1d pattern {111111111/11/1}

Atom   0N    basis set group =>   1
Atom   1C    basis set group =>   2
Atom   2C    basis set group =>   2
Atom   3O    basis set group =>   3
Atom   4C    basis set group =>   2
Atom   5S    basis set group =>   4
Atom   6O    basis set group =>   3
Atom   7N    basis set group =>   1
Atom   8C    basis set group =>   2
Atom   9O    basis set group =>   3
Atom  10N    basis set group =>   1
Atom  11C    basis set group =>   2
Atom  12O    basis set group =>   3
Atom  13C    basis set group =>   2
Atom  14N    basis set group =>   1
Atom  15C    basis set group =>   2
Atom  16C    basis set group =>   2
Atom  17C    basis set group =>   2
Atom  18C    basis set group =>   2
Atom  19C    basis set group =>   2
Atom  20C    basis set group =>   2
Atom  21C    basis set group =>   2
Atom  22C    basis set group =>   2
Atom  23N    basis set group =>   1
Atom  24C    basis set group =>   2
Atom  25C    basis set group =>   2
Atom  26C    basis set group =>   2
Atom  27O    basis set group =>   3
Atom  28C    basis set group =>   2
Atom  29O    basis set group =>   3
Atom  30C    basis set group =>   2
Atom  31O    basis set group =>   3
Atom  32C    basis set group =>   2
Atom  33O    basis set group =>   3
Atom  34P    basis set group =>   5
Atom  35O    basis set group =>   3
Atom  36O    basis set group =>   3
Atom  37O    basis set group =>   3
Atom  38H    basis set group =>   6
Atom  39H    basis set group =>   6
Atom  40H    basis set group =>   6
Atom  41H    basis set group =>   6
Atom  42H    basis set group =>   6
Atom  43H    basis set group =>   6
Atom  44H    basis set group =>   6
Atom  45H    basis set group =>   6
Atom  46H    basis set group =>   6
Atom  47H    basis set group =>   6
Atom  48H    basis set group =>   6
Atom  49H    basis set group =>   6
Atom  50H    basis set group =>   6
Atom  51H    basis set group =>   6
Atom  52H    basis set group =>   6
Atom  53H    basis set group =>   6
Atom  54H    basis set group =>   6
Atom  55H    basis set group =>   6
Atom  56H    basis set group =>   6
Atom  57H    basis set group =>   6
Atom  58H    basis set group =>   6
Atom  59H    basis set group =>   6
Atom  60H    basis set group =>   6
Atom  61H    basis set group =>   6
Atom  62H    basis set group =>   6
Atom  63H    basis set group =>   6
----------------------------------
AUXILIARY/JK BASIS SET INFORMATION
----------------------------------
There are 6 groups of distinct atoms

 Group   1 Type N   : 14s11p10d2f contracted to 14s11p10d2f pattern {11111111111111/11111111111/1111111111/11}
 Group   2 Type C   : 14s11p10d2f contracted to 14s11p10d2f pattern {11111111111111/11111111111/1111111111/11}
 Group   3 Type O   : 14s11p10d2f contracted to 14s11p10d2f pattern {11111111111111/11111111111/1111111111/11}
 Group   4 Type S   : 17s14p13d4f contracted to 17s14p13d4f pattern {11111111111111111/11111111111111/1111111111111/1111}
 Group   5 Type P   : 17s14p13d4f contracted to 17s14p13d4f pattern {11111111111111111/11111111111111/1111111111111/1111}
 Group   6 Type H   : 9s2p1d contracted to 9s2p1d pattern {111111111/11/1}

Atom   0N    basis set group =>   1
Atom   1C    basis set group =>   2
Atom   2C    basis set group =>   2
Atom   3O    basis set group =>   3
Atom   4C    basis set group =>   2
Atom   5S    basis set group =>   4
Atom   6O    basis set group =>   3
Atom   7N    basis set group =>   1
Atom   8C    basis set group =>   2
Atom   9O    basis set group =>   3
Atom  10N    basis set group =>   1
Atom  11C    basis set group =>   2
Atom  12O    basis set group =>   3
Atom  13C    basis set group =>   2
Atom  14N    basis set group =>   1
Atom  15C    basis set group =>   2
Atom  16C    basis set group =>   2
Atom  17C    basis set group =>   2
Atom  18C    basis set group =>   2
Atom  19C    basis set group =>   2
Atom  20C    basis set group =>   2
Atom  21C    basis set group =>   2
Atom  22C    basis set group =>   2
Atom  23N    basis set group =>   1
Atom  24C    basis set group =>   2
Atom  25C    basis set group =>   2
Atom  26C    basis set group =>   2
Atom  27O    basis set group =>   3
Atom  28C    basis set group =>   2
Atom  29O    basis set group =>   3
Atom  30C    basis set group =>   2
Atom  31O    basis set group =>   3
Atom  32C    basis set group =>   2
Atom  33O    basis set group =>   3
Atom  34P    basis set group =>   5
Atom  35O    basis set group =>   3
Atom  36O    basis set group =>   3
Atom  37O    basis set group =>   3
Atom  38H    basis set group =>   6
Atom  39H    basis set group =>   6
Atom  40H    basis set group =>   6
Atom  41H    basis set group =>   6
Atom  42H    basis set group =>   6
Atom  43H    basis set group =>   6
Atom  44H    basis set group =>   6
Atom  45H    basis set group =>   6
Atom  46H    basis set group =>   6
Atom  47H    basis set group =>   6
Atom  48H    basis set group =>   6
Atom  49H    basis set group =>   6
Atom  50H    basis set group =>   6
Atom  51H    basis set group =>   6
Atom  52H    basis set group =>   6
Atom  53H    basis set group =>   6
Atom  54H    basis set group =>   6
Atom  55H    basis set group =>   6
Atom  56H    basis set group =>   6
Atom  57H    basis set group =>   6
Atom  58H    basis set group =>   6
Atom  59H    basis set group =>   6
Atom  60H    basis set group =>   6
Atom  61H    basis set group =>   6
Atom  62H    basis set group =>   6
Atom  63H    basis set group =>   6
---------------------------------
AUXILIARY/X BASIS SET INFORMATION
---------------------------------
There are 6 groups of distinct atoms

 Group   1 Type N   : 14s11p10d2f contracted to 14s11p10d2f pattern {11111111111111/11111111111/1111111111/11}
 Group   2 Type C   : 14s11p10d2f contracted to 14s11p10d2f pattern {11111111111111/11111111111/1111111111/11}
 Group   3 Type O   : 14s11p10d2f contracted to 14s11p10d2f pattern {11111111111111/11111111111/1111111111/11}
 Group   4 Type S   : 17s14p13d4f contracted to 17s14p13d4f pattern {11111111111111111/11111111111111/1111111111111/1111}
 Group   5 Type P   : 17s14p13d4f contracted to 17s14p13d4f pattern {11111111111111111/11111111111111/1111111111111/1111}
 Group   6 Type H   : 9s2p1d contracted to 9s2p1d pattern {111111111/11/1}

Atom   0N    basis set group =>   1
Atom   1C    basis set group =>   2
Atom   2C    basis set group =>   2
Atom   3O    basis set group =>   3
Atom   4C    basis set group =>   2
Atom   5S    basis set group =>   4
Atom   6O    basis set group =>   3
Atom   7N    basis set group =>   1
Atom   8C    basis set group =>   2
Atom   9O    basis set group =>   3
Atom  10N    basis set group =>   1
Atom  11C    basis set group =>   2
Atom  12O    basis set group =>   3
Atom  13C    basis set group =>   2
Atom  14N    basis set group =>   1
Atom  15C    basis set group =>   2
Atom  16C    basis set group =>   2
Atom  17C    basis set group =>   2
Atom  18C    basis set group =>   2
Atom  19C    basis set group =>   2
Atom  20C    basis set group =>   2
Atom  21C    basis set group =>   2
Atom  22C    basis set group =>   2
Atom  23N    basis set group =>   1
Atom  24C    basis set group =>   2
Atom  25C    basis set group =>   2
Atom  26C    basis set group =>   2
Atom  27O    basis set group =>   3
Atom  28C    basis set group =>   2
Atom  29O    basis set group =>   3
Atom  30C    basis set group =>   2
Atom  31O    basis set group =>   3
Atom  32C    basis set group =>   2
Atom  33O    basis set group =>   3
Atom  34P    basis set group =>   5
Atom  35O    basis set group =>   3
Atom  36O    basis set group =>   3
Atom  37O    basis set group =>   3
Atom  38H    basis set group =>   6
Atom  39H    basis set group =>   6
Atom  40H    basis set group =>   6
Atom  41H    basis set group =>   6
Atom  42H    basis set group =>   6
Atom  43H    basis set group =>   6
Atom  44H    basis set group =>   6
Atom  45H    basis set group =>   6
Atom  46H    basis set group =>   6
Atom  47H    basis set group =>   6
Atom  48H    basis set group =>   6
Atom  49H    basis set group =>   6
Atom  50H    basis set group =>   6
Atom  51H    basis set group =>   6
Atom  52H    basis set group =>   6
Atom  53H    basis set group =>   6
Atom  54H    basis set group =>   6
Atom  55H    basis set group =>   6
Atom  56H    basis set group =>   6
Atom  57H    basis set group =>   6
Atom  58H    basis set group =>   6
Atom  59H    basis set group =>   6
Atom  60H    basis set group =>   6
Atom  61H    basis set group =>   6
Atom  62H    basis set group =>   6
Atom  63H    basis set group =>   6


           ************************************************************
           *        Program running with 64 parallel MPI-processes    *
           *              working on a common directory               *
           ************************************************************
------------------------------------------------------------------------------
                             ORCA STARTUP CALCULATIONS
------------------------------------------------------------------------------
------------------------------------------------------------------------------
                   ___                                                        
                  /   \      - P O W E R E D   B Y -                         
                 /     \                                                     
                 |  |  |   _    _      __       _____    __    __             
                 |  |  |  | |  | |    /  \     |  _  \  |  |  /  |          
                  \  \/   | |  | |   /    \    | | | |  |  | /  /          
                 / \  \   | |__| |  /  /\  \   | |_| |  |  |/  /          
                |  |  |   |  __  | /  /__\  \  |    /   |      \           
                |  |  |   | |  | | |   __   |  |    \   |  |\   \          
                \     /   | |  | | |  |  |  |  | |\  \  |  | \   \       
                 \___/    |_|  |_| |__|  |__|  |_| \__\ |__|  \__/        
                                                                              
                      - O R C A' S   B I G   F R I E N D -                    
                                      &                                       
                       - I N T E G R A L  F E E D E R -                       
                                                                              
 v1 FN, 2020, v2 2021, v3 2022-2024                                           
------------------------------------------------------------------------------


----------------------
SHARK INTEGRAL PACKAGE
----------------------

Number of atoms                             ...     64
Number of basis functions                   ...    670
Number of shells                            ...    310
Maximum angular momentum                    ...      2
Integral batch strategy                     ... SHARK/LIBINT Hybrid
RI-J (if used) integral strategy            ... SPLIT-RIJ (Revised 2003 algorithm where possible)
Printlevel                                  ...      1
Contraction scheme used                     ... SEGMENTED contraction
Prescreening option                         ... SCHWARTZ
   Thresh                                   ... 2.500e-11
   Tcut                                     ... 2.500e-12
   Tpresel                                  ... 2.500e-12 
Coulomb Range Separation                    ... NOT USED
Exchange Range Separation                   ... NOT USED
Multipole approximations                    ... NOT USED
Finite Nucleus Model                        ... NOT USED
CABS basis                                  ... NOT available
Auxiliary Coulomb fitting basis             ... AVAILABLE
   # of basis functions in Aux-J            ...   4820
   # of shells in Aux-J                     ...   1740
   Maximum angular momentum in Aux-J        ...      3
Auxiliary J/K fitting basis                 ... AVAILABLE
   # of basis functions in Aux-JK           ...   4820
   # of shells in Aux-JK                    ...   1740
   Maximum angular momentum in Aux-JK       ...      3
Auxiliary Correlation fitting basis         ... AVAILABLE
   # of basis functions in Aux-C            ...   4820
   # of shells in Aux-C                     ...   1740
   Maximum angular momentum in Aux-C        ...      3
Auxiliary 'external' fitting basis          ... NOT available

Checking pre-screening integrals            ... done (  0.0 sec) Dimension = 310
Check shell pair data                       ... done (  0.0 sec)
Shell pair information
Shell pair cut-off parameter TPreSel        ...   2.5e-12
Total number of shell pairs                 ...     48205
Shell pairs after pre-screening             ...     29012
Total number of primitive shell pairs       ...    179693
Primitive shell pairs kept                  ...     63798
          la=0 lb=0:   8973 shell pairs
          la=1 lb=0:  10935 shell pairs
          la=1 lb=1:   3397 shell pairs
          la=2 lb=0:   3361 shell pairs
          la=2 lb=1:   2052 shell pairs
          la=2 lb=2:    294 shell pairs

Calculating one electron integrals          ... done (  0.1 sec)
Calculating RI/J V-Matrix + Cholesky decomp.... done (  1.3 sec)
Calculating RI/JK V-Matrix + Cholesky decomp... done (  1.2 sec)
Calculating RI/C V-Matrix + Cholesky decomp.... done (  1.2 sec)
Calculating Nuclear repulsion               ... done (  0.0 sec) ENN=   5143.368184932061 Eh

Diagonalization of the overlap matrix:
Smallest eigenvalue                        ... 1.801e-04
Time for diagonalization                   ...    0.069 sec
Threshold for overlap eigenvalues          ... 1.000e-07
Number of eigenvalues below threshold      ... 0
Time for construction of square roots      ...    0.052 sec
Total time needed                          ...    0.131 sec

-------------------
DFT GRID GENERATION
-------------------

General Integration Accuracy     IntAcc      ... 4.388
Radial Grid Type                 RadialGrid  ... OptM3 with GC (2021)
Angular Grid (max. ang.)         AngularGrid ... 4 (Lebedev-302)
Angular grid pruning method      GridPruning ... 4 (adaptive)
Weight generation scheme         WeightScheme... mBecke (2022)
Basis function cutoff            BFCut       ... 1.0000e-11
Integration weight cutoff        WCut        ... 1.0000e-14
Partially contracted basis set               ... off
Rotationally invariant grid construction     ... off
Angular grids for H and He will be reduced by one unit

Total number of grid points                  ...   310887
Total number of batches                      ...     4885
Average number of points per batch           ...       63
Average number of grid points per atom       ...     4858
Initializing property integral containers    ... done (  0.0 sec)

SHARK setup successfully completed in   5.9 seconds

Maximum memory used throughout the entire STARTUP-calculation: 93.1 MB


           ************************************************************
           *        Program running with 64 parallel MPI-processes    *
           *              working on a common directory               *
           ************************************************************
-------------------------------------------------------------------------------
                                 ORCA GUESS
                   Start orbitals & Density for SCF / CASSCF
-------------------------------------------------------------------------------

------------
SCF SETTINGS
------------
Hamiltonian:
 Ab initio Hamiltonian  Method          .... Hartree-Fock(GTOs)


General Settings:
 Integral files         IntName         .... FMN_s0
 Hartree-Fock type      HFTyp           .... CASSCF
 Total Charge           Charge          ....   -2
 Multiplicity           Mult            ....    1
 Number of Electrons    NEL             ....  302
 Basis Dimension        Dim             ....  670
 Nuclear Repulsion      ENuc            ....   5143.3681849321 Eh

------------------------------
INITIAL GUESS: MODEL POTENTIAL
------------------------------
Loading Hartree-Fock densities                     ... done
Calculating cut-offs                               ... done
Initializing the effective Hamiltonian             ... done
Setting up the integral package (SHARK)            ... done
Starting the Coulomb interaction                   ... done (   0.2 sec)
Making the grid                                    ... done (   0.3 sec)
Mapping shells                                     ... done
Starting the XC term evaluation                    ... done (   0.0 sec)
Transforming the Hamiltonian                       ... done (   0.1 sec)
Diagonalizing the Hamiltonian                      ... done (   0.1 sec)
Back transforming the eigenvectors                 ... done (   0.0 sec)
Now organizing SCF variables                       ... done
                      ------------------
                      INITIAL GUESS DONE (   0.7 sec)
                      ------------------
             **** ENERGY FILE WAS UPDATED (FMN_s0.en.tmp) ****
Finished Guess after   1.4 sec
Maximum memory used throughout the entire GUESS-calculation: 60.8 MB


           ************************************************************
           *        Program running with 64 parallel MPI-processes    *
           *              working on a common directory               *
           ************************************************************
-------------------------------------------------------------------------------
                              ORCA-CASSCF
-------------------------------------------------------------------------------

Building the CAS space              ... done (141 configurations for Mult=1)

SYSTEM-SPECIFIC SETTINGS:
Number of active electrons          ...    6
Number of active orbitals           ...    6
Total number of electrons           ...  302
Total number of orbitals            ...  670

Determined orbital ranges:
   Internal       0 -  147 ( 148 orbitals)
   Active       148 -  153 (   6 orbitals)
   External     154 -  669 ( 516 orbitals)
Number of rotation parameters      ...  80352

CI-STEP:
CI strategy                         ... General CI
Number of multiplicity blocks       ...    1
BLOCK  0 WEIGHT=   1.0000
  Multiplicity                      ...    1
  #(Configurations)                 ...  141
  #(CSFs)                           ...  175
  #(Roots)                          ...    6
    ROOT=0 WEIGHT=    0.166667
    ROOT=1 WEIGHT=    0.166667
    ROOT=2 WEIGHT=    0.166667
    ROOT=3 WEIGHT=    0.166667
    ROOT=4 WEIGHT=    0.166667
    ROOT=5 WEIGHT=    0.166667

  PrintLevel                        ...    1
  N(GuessMat)                       ...      2048
  MaxDim(CI)                        ...        10
  MaxIter(CI)                       ...        64
  Energy Tolerance CI               ...  2.50e-09
  Residual Tolerance CI             ...  2.50e-09
  Shift(CI)                         ...  1.00e-04

INTEGRAL-TRANSFORMATION-STEP:
  Algorithm                         ... EXACT

ORBITAL-IMPROVEMENT-STEP:
  Algorithm                         ... SuperCI(PT)
  Default Parametrization           ... CAYLEY
  Act-Act rotations                 ... depends on algorithm used

  Note: SuperCI(PT) will ignore FreezeIE, FreezeAct and FreezeGrad. In general Default settings are encouraged.
        In conjunction with ShiftUp, ShiftDn or GradScaling the performance of SuperCI(PT) is less optimal.  

  MaxRot                            ... 2.00e-01 
  Max. no of vectors (DIIS)         ... 15
  DThresh (cut-off) metric          ... 1.00e-06
  Switch step at gradient           ...  3.00e-02 
  Switch step at iteration          ...        50   
  Switch step to                    ... SuperCI(PT)    

SCF-SETTINGS:
  Incremental                       ... on
  RIJCOSX approximation             ... off
  RI-JK approximation               ... off
  AO integral handling              ... DIRECT
  Integral Neglect Thresh           ...  2.50e-11
  Primitive cutoff TCut             ...  2.50e-12
  Energy convergence tolerance      ...  2.50e-08
  Orbital gradient convergence      ...  2.50e-04
  Max. number of iterations         ...      1000  


FINAL ORBITALS:
  Active   Orbitals                 ... natural 
  Internal Orbitals                 ... canonical 
  External Orbitals                 ... canonical 
--------------------
CPCM SOLVATION MODEL
--------------------
CPCM parameters:
  Epsilon                                         ...      80.1510
  Refrac                                          ...       1.3328
  Rsolv                                           ...       1.3000
  Surface type                                    ... GAUSSIAN VDW
  Discretization scheme                           ... Constant charge density
    Threshold for H atoms                         ...       5.0000 (charges/Ang^2)
    Threshold for non-H atoms                     ...       5.0000 (charges/Ang^2)
  Epsilon function type                           ...         CPCM
Solvent:                                          ... WATER
Radii:
  Scheme                                          ... Element-dependent radii
  Radius for N  used is    3.5149 Bohr (=   1.8600 Ang.)
  Radius for C  used is    3.8550 Bohr (=   2.0400 Ang.)
  Radius for O  used is    3.4469 Bohr (=   1.8240 Ang.)
  Radius for S  used is    4.0818 Bohr (=   2.1600 Ang.)
  Radius for P  used is    4.0818 Bohr (=   2.1600 Ang.)
  Radius for H  used is    2.4944 Bohr (=   1.3200 Ang.)
Calculating surface                               ...        done! (  0.0s)
Cavity surface points                             ...         5252
Cavity Volume                                     ...    4053.6062
Cavity Surface-area                               ...    1994.3002
Calculating surface distance matrix               ...        done! (  0.2s)
Performing Cholesky decomposition & store         ...        done! (  0.7s)
Overall time for CPCM initialization              ...                 0.9s


------------------
CAS-SCF ITERATIONS
------------------


MACRO-ITERATION   1: 
   --- CPCM  contribution = -0.594879842 
   --- Inactive Energy E0 = -2627.76455336 Eh
CI-ITERATION   0: 
 -2632.066517114   0.000000000003 (    0.01)
 -2632.057039651   0.000000000003
 -2631.929758882   0.000000000003
 -2631.925223476   0.000000000002
 -2631.920042891   0.000000000003
 -2631.914846256   0.000000000002
   CI-PROBLEM SOLVED
   DENSITIES MADE

                 <<<<<<<<<<<<<<<<<<INITIAL CI STATE CHECK>>>>>>>>>>>>>>>>>>

BLOCK  0 MULT= 1 NROOTS= 6 
ROOT   0:  E=   -2632.0665171142 Eh
      0.77680 [     1]: 221100
      0.11874 [    10]: 212100
      0.04051 [    48]: 121200
      0.02131 [     3]: 221001
      0.01295 [    50]: 121101
      0.00632 [    61]: 112200
      0.00525 [   104]: 021120
      0.00373 [     2]: 221010
      0.00317 [     0]: 222000
      0.00293 [    12]: 212001
ROOT   1:  E=   -2632.0570396505 Eh  0.258 eV   2080.1 cm**-1
      0.77662 [    10]: 212100
      0.11556 [     1]: 221100
      0.04342 [    61]: 112200
      0.02094 [    12]: 212001
      0.01363 [    63]: 112101
      0.00637 [    48]: 121200
      0.00526 [   117]: 012120
      0.00342 [    11]: 212010
      0.00339 [     3]: 221001
      0.00322 [     0]: 222000
ROOT   2:  E=   -2631.9297588820 Eh  3.721 eV  30015.0 cm**-1
      0.41642 [     2]: 221010
      0.35908 [    48]: 121200
      0.08930 [    11]: 212010
      0.04437 [    61]: 112200
      0.02913 [     3]: 221001
      0.01372 [     1]: 221100
      0.01127 [   102]: 021210
      0.00949 [    52]: 121011
      0.00549 [    12]: 212001
      0.00408 [   103]: 021201
ROOT   3:  E=   -2631.9252234764 Eh  3.845 eV  31010.4 cm**-1
      0.47102 [    48]: 121200
      0.30510 [     2]: 221010
      0.10902 [    11]: 212010
      0.04135 [     1]: 221100
      0.03122 [    61]: 112200
      0.01442 [   102]: 021210
      0.00473 [    52]: 121011
      0.00430 [   115]: 012210
      0.00419 [    10]: 212100
      0.00314 [    51]: 121020
ROOT   4:  E=   -2631.9200428910 Eh  3.986 eV  32147.4 cm**-1
      0.46648 [    11]: 212010
      0.28036 [    61]: 112200
      0.14695 [     2]: 221010
      0.02966 [    12]: 212001
      0.01341 [    48]: 121200
      0.01297 [   115]: 012210
      0.01118 [    65]: 112011
      0.01010 [    10]: 212100
      0.00491 [   102]: 021210
      0.00477 [     3]: 221001
      0.00377 [   116]: 012201
      0.00321 [    52]: 121011
ROOT   5:  E=   -2631.9148462565 Eh  4.127 eV  33287.9 cm**-1
      0.54478 [    61]: 112200
      0.25325 [    11]: 212010
      0.06315 [    48]: 121200
      0.04950 [     2]: 221010
      0.04911 [    10]: 212100
      0.01201 [   115]: 012210
      0.00623 [     1]: 221100
      0.00421 [    65]: 112011
      0.00360 [    64]: 112020
      0.00262 [   116]: 012201

                 <<<<<<<<<<<<<<<<<<INITIAL CI STATE CHECK>>>>>>>>>>>>>>>>>>

   E(CAS)= -2603.629530576 Eh DE=    0.000000e+00
   --- Energy gap subspaces: Ext-Act = 0.059   Act-Int = 0.084
   N(occ)=  1.63138 1.50059 1.50091 0.99254 0.33471 0.03987
   ||g|| =     5.889648e+00 Max(G)=   -3.169845e-01 Rot=381,127
   --- Orbital Update [SuperCI(PT)]
   --- Canonicalize Internal Space
   --- Canonicalize External Space
   --- SX_PT (Skipped TA=0 IT=0): ||X|| =      0.895270423 Max(X)(157,153) =      0.146968225 
   --- SFit(Active Orbitals)

MACRO-ITERATION   2: 
   --- CPCM  contribution = -0.456919209 
   --- Inactive Energy E0 = -2627.85727905 Eh
CI-ITERATION   0: 
 -2632.723357182   0.000000000005 (    0.01)
 -2632.717256910   0.000000000003
 -2632.601257860   0.000000000004
 -2632.596072666   0.000000000005
 -2632.592306823   0.000000000005
 -2632.586811208   0.000000000003
   CI-PROBLEM SOLVED
   DENSITIES MADE
   E(CAS)= -2604.833636108 Eh DE=   -1.204106e+00
   --- Energy gap subspaces: Ext-Act = 0.033   Act-Int = 0.073
   N(occ)=  1.66479 1.51264 1.50032 0.94445 0.31549 0.06231
   ||g|| =     2.668332e+00 Max(G)=    1.605970e-01 Rot=348,107
   --- Orbital Update [SuperCI(PT)]
   --- Canonicalize Internal Space
   --- Canonicalize External Space
   --- SX_PT (Skipped TA=0 IT=0): ||X|| =      0.511946344 Max(X)(155,153) =      0.121250155 
   --- SFit(Active Orbitals)

MACRO-ITERATION   3: 
   --- CPCM  contribution = -0.495415719 
   --- Inactive Energy E0 = -2627.56545685 Eh
CI-ITERATION   0: 
 -2632.439861283   0.000000000006 (    0.01)
 -2632.432900018   0.000000000003
 -2632.317132398   0.000000000004
 -2632.312943065   0.000000000003
 -2632.309733984   0.000000000003
 -2632.307290758   0.000000000003
   CI-PROBLEM SOLVED
   DENSITIES MADE
   E(CAS)= -2605.166949620 Eh DE=   -3.333135e-01
   --- Energy gap subspaces: Ext-Act = 0.032   Act-Int = 0.067
   N(occ)=  1.64097 1.50791 1.50049 0.97103 0.32409 0.05551
   ||g|| =     3.908010e-01 Max(G)=   -2.791292e-02 Rot=158,132
   --- Orbital Update [SuperCI(PT)]
   --- Canonicalize Internal Space
   --- Canonicalize External Space
   --- SX_PT (Skipped TA=0 IT=0): ||X|| =      0.305171262 Max(X)(155,153) =     -0.220481454 
   --- SFit(Active Orbitals)

MACRO-ITERATION   4: 
   --- CPCM  contribution = -0.494948943 
   --- Inactive Energy E0 = -2627.76240862 Eh
CI-ITERATION   0: 
 -2632.663239415   0.000000000003 (    0.01)
 -2632.656482839   0.000000000002
 -2632.542155247   0.000000000005
 -2632.537144537   0.000000000007
 -2632.535030420   0.000000000006
 -2632.531376849   0.000000000005
   CI-PROBLEM SOLVED
   DENSITIES MADE
   E(CAS)= -2605.177379825 Eh DE=   -1.043021e-02
   --- Energy gap subspaces: Ext-Act = 0.025   Act-Int = 0.066
   N(occ)=  1.63521 1.50691 1.50048 0.97073 0.32389 0.06278
   ||g|| =     1.917148e-01 Max(G)=   -2.022848e-02 Rot=158,132
   --- Orbital Update [SuperCI(PT)]
   --- Canonicalize Internal Space
   --- Canonicalize External Space
   --- SX_PT (Skipped TA=0 IT=0): ||X|| =      0.272908044 Max(X)(154,153) =      0.200255285 
   --- SFit(Active Orbitals)

MACRO-ITERATION   5: 
   --- CPCM  contribution = -0.517568528 
   --- Inactive Energy E0 = -2627.59943653 Eh
CI-ITERATION   0: 
 -2632.543855443   0.000000000003 (    0.01)
 -2632.537160743   0.000000000003
 -2632.427513753   0.000000000004
 -2632.424291655   0.000000000006
 -2632.421371760   0.000000000004
 -2632.416904257   0.000000000003
   CI-PROBLEM SOLVED
   DENSITIES MADE
   E(CAS)= -2605.180601184 Eh DE=   -3.221359e-03
   --- Energy gap subspaces: Ext-Act = -0.014   Act-Int = 0.070
   N(occ)=  1.61926 1.50236 1.50044 0.97309 0.33296 0.07189
   ||g|| =     3.546743e-01 Max(G)=    2.435529e-02 Rot=236,141
   --- Orbital Update [SuperCI(PT)]
   --- Canonicalize Internal Space
   --- Canonicalize External Space
   --- SX_PT (Skipped TA=0 IT=0): ||X|| =      0.086496954 Max(X)(154,151) =      0.021524427 
   --- SFit(Active Orbitals)

MACRO-ITERATION   6: 
   --- CPCM  contribution = -0.505631019 
   --- Inactive Energy E0 = -2627.71843528 Eh
CI-ITERATION   0: 
 -2632.723224512   0.000000000004 (    0.01)
 -2632.716724234   0.000000000005
 -2632.605925087   0.000000000004
 -2632.602057106   0.000000000004
 -2632.600107523   0.000000000002
 -2632.594301821   0.000000000003
   CI-PROBLEM SOLVED
   DENSITIES MADE
   E(CAS)= -2605.188356533 Eh DE=   -7.755349e-03
   --- Energy gap subspaces: Ext-Act = -0.016   Act-Int = 0.067
   N(occ)=  1.61397 1.50180 1.50045 0.97846 0.33120 0.07410
   ||g|| =     9.391258e-02 Max(G)=   -1.216862e-02 Rot=154,151
   --- Orbital Update [SuperCI(PT)]
   --- Canonicalize Internal Space
   --- Canonicalize External Space
   --- SX_PT (Skipped TA=0 IT=0): ||X|| =      0.038705100 Max(X)(154,151) =      0.017333244 
   --- SFit(Active Orbitals)

MACRO-ITERATION   7: 
   --- CPCM  contribution = -0.499130534 
   --- Inactive Energy E0 = -2627.73706842 Eh
CI-ITERATION   0: 
 -2632.740016684   0.000000000003 (    0.01)
 -2632.733414527   0.000000000005
 -2632.622709709   0.000000000004
 -2632.618047713   0.000000000004
 -2632.616770126   0.000000000003
 -2632.610157745   0.000000000003
   CI-PROBLEM SOLVED
   DENSITIES MADE
   E(CAS)= -2605.189203089 Eh DE=   -8.465559e-04
   --- Energy gap subspaces: Ext-Act = -0.022   Act-Int = 0.066
   N(occ)=  1.61197 1.50192 1.50047 0.98016 0.33044 0.07504
   ||g|| =     3.346562e-02 Max(G)=   -4.318763e-03 Rot=152,147
   --- Orbital Update [SuperCI(PT)]
   --- Canonicalize Internal Space
   --- Canonicalize External Space
   --- SX_PT (Skipped TA=0 IT=0): ||X|| =      0.031378731 Max(X)(154,153) =      0.018442964 
   --- SFit(Active Orbitals)

MACRO-ITERATION   8: 
   --- CPCM  contribution = -0.498551729 
   --- Inactive Energy E0 = -2627.67898150 Eh
CI-ITERATION   0: 
 -2632.689521674   0.000000000003 (    0.01)
 -2632.682928876   0.000000000007
 -2632.572755166   0.000000000002
 -2632.567512846   0.000000000006
 -2632.566811812   0.000000000004
 -2632.559628556   0.000000000005
   CI-PROBLEM SOLVED
   DENSITIES MADE
   E(CAS)= -2605.189486378 Eh DE=   -2.832886e-04
   --- Energy gap subspaces: Ext-Act = -0.027   Act-Int = 0.066
   N(occ)=  1.60879 1.50178 1.50048 0.98392 0.33048 0.07454
   ||g|| =     1.948050e-02 Max(G)=   -2.369433e-03 Rot=154,151
   --- Orbital Update [SuperCI(PT)]
   --- Canonicalize Internal Space
   --- Canonicalize External Space
   --- SX_PT (Skipped TA=0 IT=0): ||X|| =      0.016869497 Max(X)(154,152) =     -0.006545276 
   --- SFit(Active Orbitals)

MACRO-ITERATION   9: 
   --- CPCM  contribution = -0.496901244 
   --- Inactive Energy E0 = -2627.66002889 Eh
CI-ITERATION   0: 
 -2632.681998348   0.000000000003 (    0.01)
 -2632.675382114   0.000000000005
 -2632.565581932   0.000000000004
 -2632.559756384   0.000000000005
 -2632.559605743   0.000000000005
 -2632.551851689   0.000000000002
   CI-PROBLEM SOLVED
   DENSITIES MADE
   E(CAS)= -2605.189609637 Eh DE=   -1.232592e-04
   --- Energy gap subspaces: Ext-Act = -0.033   Act-Int = 0.066
   N(occ)=  1.60659 1.50185 1.50049 0.98650 0.33016 0.07441
   ||g|| =     1.461649e-02 Max(G)=   -1.236482e-03 Rot=155,135
   --- Orbital Update [SuperCI(PT)]
   --- Canonicalize Internal Space
   --- Canonicalize External Space
   --- SX_PT (Skipped TA=0 IT=0): ||X|| =      0.010513653 Max(X)(154,152) =     -0.004886323 
   --- SFit(Active Orbitals)

MACRO-ITERATION  10: 
   --- CPCM  contribution = -0.495670491 
   --- Inactive Energy E0 = -2627.68185267 Eh
CI-ITERATION   0: 
 -2632.706769315   0.000000000003 (    0.01)
 -2632.700146082   0.000000000003
 -2632.590159164   0.000000000003
 -2632.584751180   0.000000000002
 -2632.584235831   0.000000000003
 -2632.576890232   0.000000000003
   CI-PROBLEM SOLVED
   DENSITIES MADE
   E(CAS)= -2605.189654615 Eh DE=   -4.497766e-05
   --- Energy gap subspaces: Ext-Act = -0.036   Act-Int = 0.066
   N(occ)=  1.60554 1.50202 1.50049 0.98807 0.32972 0.07414
   ||g|| =     9.237260e-03 Max(G)=    1.074759e-03 Rot=155,135
   --- Orbital Update [SuperCI(PT)]
   --- Canonicalize Internal Space
   --- Canonicalize External Space
   --- SX_PT (Skipped TA=0 IT=0): ||X|| =      0.006201039 Max(X)(154,153) =      0.004651441 
   --- SFit(Active Orbitals)

MACRO-ITERATION  11: 
   --- CPCM  contribution = -0.496440372 
   --- Inactive Energy E0 = -2627.69490848 Eh
CI-ITERATION   0: 
 -2632.721620091   0.000000000003 (    0.01)
 -2632.715006872   0.000000000004
 -2632.605218748   0.000000000003
 -2632.599655933   0.000000000003
 -2632.599295817   0.000000000002
 -2632.591854005   0.000000000003
   CI-PROBLEM SOLVED
   DENSITIES MADE
   E(CAS)= -2605.189671071 Eh DE=   -1.645670e-05
   --- Energy gap subspaces: Ext-Act = -0.038   Act-Int = 0.065
   N(occ)=  1.60492 1.50205 1.50050 0.98883 0.32985 0.07386
   ||g|| =     4.218882e-03 Max(G)=    6.999459e-04 Rot=152,147
   --- Orbital Update [SuperCI(PT)]
   --- Canonicalize Internal Space
   --- Canonicalize External Space
   --- SX_PT (Skipped TA=0 IT=0): ||X|| =      0.001747884 Max(X)(154,153) =      0.000657515 
   --- SFit(Active Orbitals)

MACRO-ITERATION  12: 
   --- CPCM  contribution = -0.496983556 
   --- Inactive Energy E0 = -2627.71225524 Eh
CI-ITERATION   0: 
 -2632.740102535   0.000000000003 (    0.01)
 -2632.733502238   0.000000000002
 -2632.623641505   0.000000000006
 -2632.618257685   0.000000000003
 -2632.617724495   0.000000000003
 -2632.610483434   0.000000000004
   CI-PROBLEM SOLVED
   DENSITIES MADE
   E(CAS)= -2605.189676582 Eh DE=   -5.511034e-06
   --- Energy gap subspaces: Ext-Act = -0.038   Act-Int = 0.065
   N(occ)=  1.60482 1.50206 1.50050 0.98900 0.32992 0.07370
   ||g|| =     2.592283e-03 Max(G)=    5.686877e-04 Rot=152,147
   --- Orbital Update [SuperCI(PT)]
   --- Canonicalize Internal Space
   --- Canonicalize External Space
   --- SX_PT (Skipped TA=0 IT=0): ||X|| =      0.001258288 Max(X)(148,128) =      0.000623637 
   --- SFit(Active Orbitals)

MACRO-ITERATION  13: 
   --- CPCM  contribution = -0.497142638 
   --- Inactive Energy E0 = -2627.72033634 Eh
CI-ITERATION   0: 
 -2632.747689813   0.000000000005 (    0.01)
 -2632.741092120   0.000000000002
 -2632.631205365   0.000000000003
 -2632.625872554   0.000000000005
 -2632.625291411   0.000000000003
 -2632.618102359   0.000000000003
   CI-PROBLEM SOLVED
   DENSITIES MADE
   E(CAS)= -2605.189677833 Eh DE=   -1.250419e-06
   --- Energy gap subspaces: Ext-Act = -0.038   Act-Int = 0.065
   N(occ)=  1.60485 1.50207 1.50050 0.98901 0.32993 0.07364
   ||g|| =     1.540352e-03 Max(G)=   -2.625992e-04 Rot=153,147
   --- Orbital Update [SuperCI(PT)]
   --- Canonicalize Internal Space
   --- Canonicalize External Space
   --- SX_PT (Skipped TA=0 IT=0): ||X|| =      0.000643666 Max(X)(148,128) =      0.000313727 
   --- SFit(Active Orbitals)

MACRO-ITERATION  14: 
   --- CPCM  contribution = -0.497244027 
   --- Inactive Energy E0 = -2627.72372474 Eh
CI-ITERATION   0: 
 -2632.750557091   0.000000000004 (    0.01)
 -2632.743960132   0.000000000002
 -2632.634059385   0.000000000004
 -2632.628758203   0.000000000003
 -2632.628147114   0.000000000003
 -2632.620988186   0.000000000003
   CI-PROBLEM SOLVED
   DENSITIES MADE
   E(CAS)= -2605.189678144 Eh DE=   -3.117716e-07
   --- Energy gap subspaces: Ext-Act = -0.038   Act-Int = 0.065
   N(occ)=  1.60486 1.50208 1.50050 0.98902 0.32994 0.07360
   ||g|| =     6.521970e-04 Max(G)=   -7.181812e-05 Rot=153,147
   --- Orbital Update [SuperCI(PT)]
   --- Canonicalize Internal Space
   --- Canonicalize External Space
   --- SX_PT (Skipped TA=0 IT=0): ||X|| =      0.000348949 Max(X)(154,153) =      0.000217220 
Warning: badly conditioned DIIS matrix, 1 vectors out of 14 destroyed
   --- SFit(Active Orbitals)

MACRO-ITERATION  15: 
   --- CPCM  contribution = -0.497255879 
   --- Inactive Energy E0 = -2627.72202240 Eh
CI-ITERATION   0: 
 -2632.748667864   0.000000000002 (    0.01)
 -2632.742070643   0.000000000002
 -2632.632176275   0.000000000006
 -2632.626862343   0.000000000004
 -2632.626264588   0.000000000004
 -2632.619091330   0.000000000004
   CI-PROBLEM SOLVED
   DENSITIES MADE
   E(CAS)= -2605.189678217 Eh DE=   -7.278504e-08
   --- Energy gap subspaces: Ext-Act = -0.038   Act-Int = 0.065
   N(occ)=  1.60486 1.50208 1.50050 0.98903 0.32994 0.07359
   ||g|| =     4.087327e-04 Max(G)=    6.118453e-05 Rot=156,148
   --- Orbital Update [SuperCI(PT)]
   --- Canonicalize Internal Space
   --- Canonicalize External Space
   --- SX_PT (Skipped TA=0 IT=0): ||X|| =      0.000272685 Max(X)(154,152) =     -0.000194098 
Warning: badly conditioned DIIS matrix, 1 vectors out of 14 destroyed
Warning: badly conditioned DIIS matrix, 1 vectors out of 13 destroyed
   --- SFit(Active Orbitals)

MACRO-ITERATION  16: 
   --- CPCM  contribution = -0.497227300 
   --- Inactive Energy E0 = -2627.72093342 Eh
CI-ITERATION   0: 
 -2632.747583104   0.000000000005 (    0.01)
 -2632.740985693   0.000000000003
 -2632.631089682   0.000000000003
 -2632.625776809   0.000000000003
 -2632.625178919   0.000000000003
 -2632.618005221   0.000000000003
   CI-PROBLEM SOLVED
   DENSITIES MADE
   E(CAS)= -2605.189678255 Eh DE=   -3.807691e-08
   --- Energy gap subspaces: Ext-Act = -0.038   Act-Int = 0.065
   N(occ)=  1.60486 1.50209 1.50050 0.98902 0.32993 0.07360
   ||g|| =     2.591359e-04 Max(G)=   -2.116961e-05 Rot=153,147
   --- Orbital Update [SuperCI(PT)]
   --- Canonicalize Internal Space
   --- Canonicalize External Space
   --- SX_PT (Skipped TA=0 IT=0): ||X|| =      0.000169461 Max(X)(154,153) =      0.000117228 
Warning: badly conditioned DIIS matrix, 1 vectors out of 13 destroyed
   --- SFit(Active Orbitals)

MACRO-ITERATION  17: 
   --- CPCM  contribution = -0.497237927 
   --- Inactive Energy E0 = -2627.72078943 Eh
CI-ITERATION   0: 
 -2632.747392692   0.000000000003 (    0.01)
 -2632.740795306   0.000000000005
 -2632.630901531   0.000000000006
 -2632.625589629   0.000000000005
 -2632.624991376   0.000000000003
 -2632.617818414   0.000000000004
   CI-PROBLEM SOLVED
   DENSITIES MADE
   E(CAS)= -2605.189678264 Eh DE=   -8.469215e-09
   --- Energy gap subspaces: Ext-Act = -0.038   Act-Int = 0.065
   N(occ)=  1.60485 1.50209 1.50050 0.98904 0.32992 0.07360
   ||g|| =     1.657851e-04 Max(G)=    1.339013e-05 Rot=155,135
                     ---- THE CAS-SCF ENERGY   HAS CONVERGED ----
                     ---- THE CAS-SCF GRADIENT HAS CONVERGED ----
                            --- FINALIZING ORBITALS ---
                    ---- DOING ONE FINAL ITERATION FOR PRINTING ----
   --- Canonicalize Internal Space
   --- Canonicalize External Space

MACRO-ITERATION  18: 
   --- CPCM  contribution = -0.497225161 
[...]
177:   3292.27   0.003034   15.33  0.000288  ( 0.013508  0.007140  0.007358)
178:   3305.15   0.001340    6.77  0.000127  ( 0.006712  0.007279 -0.005341)
179:   3308.48   0.003521   17.79  0.000332  ( 0.006311  0.016806  0.003136)
180:   3321.48   0.003358   16.97  0.000315  (-0.008495  0.015505 -0.001709)
181:   3358.14   0.000600    3.03  0.000056  ( 0.007287  0.000116  0.001615)
182:   3372.75   0.000218    1.10  0.000020  (-0.000447  0.003865 -0.002238)
183:   3425.52   0.001002    5.07  0.000091  (-0.002824  0.008091  0.004228)
184:   3505.55   0.272678  1378.00  0.024274  ( 0.089041 -0.059118  0.113360)
185:   3514.01   0.139525  705.10  0.012391  (-0.028504 -0.099629  0.040648)
186:   3671.97   0.048903  247.14  0.004156  (-0.034388  0.042876 -0.033693)
187:   3752.63   0.042764  216.11  0.003556  ( 0.043781 -0.006445 -0.039973)
188:   3780.06   0.072837  368.09  0.006013  (-0.047065 -0.047324 -0.039477)
189:   3822.46   0.053367  269.69  0.004357  ( 0.029485 -0.052881 -0.026287)
190:   4100.23   0.045548  230.18  0.003467  ( 0.013558 -0.050044 -0.027899)
191:   4130.32   0.025408  128.40  0.001920  (-0.001827  0.034414 -0.027056)

* The epsilon (eps) is given for a Dirac delta lineshape.
** The dipole moment derivative (T) already includes vibrational overlap.

The first frequency considered to be a vibration is 6
The total number of vibrations considered is 186


--------------------------
THERMOCHEMISTRY AT 298.15K
--------------------------

Temperature         ...   298.15 K
Pressure            ...     1.00 atm
Total Mass          ...   575.49 AMU
Quasi RRHO          ...     True
Cut-Off Frequency   ...     1.00 cm^-1

Throughout the following assumptions are being made:
  (1) The electronic state is orbitally nondegenerate
  (2) There are no thermally accessible electronically excited states
  (3) Hindered rotations indicated by low frequency modes are not
      treated as such but are treated as vibrations and this may
      cause some error
  (4) All equations used are the standard statistical mechanics
      equations for an ideal gas
  (5) All vibrations are strictly harmonic

freq.      13.52  E(vib)   ...       0.57 
freq.      16.32  E(vib)   ...       0.57 
freq.      21.60  E(vib)   ...       0.56 
freq.      27.23  E(vib)   ...       0.55 
freq.      32.45  E(vib)   ...       0.55 
freq.      36.80  E(vib)   ...       0.54 
freq.      40.46  E(vib)   ...       0.54 
freq.      44.29  E(vib)   ...       0.53 
freq.      48.63  E(vib)   ...       0.53 
freq.      51.05  E(vib)   ...       0.52 
freq.      60.01  E(vib)   ...       0.51 
freq.      66.79  E(vib)   ...       0.50 
freq.      73.60  E(vib)   ...       0.49 
freq.      77.80  E(vib)   ...       0.49 
freq.      94.55  E(vib)   ...       0.47 
freq.     107.00  E(vib)   ...       0.45 
freq.     126.04  E(vib)   ...       0.43 
freq.     134.87  E(vib)   ...       0.42 
freq.     146.19  E(vib)   ...       0.41 
freq.     160.84  E(vib)   ...       0.39 
freq.     169.32  E(vib)   ...       0.38 
freq.     182.05  E(vib)   ...       0.37 
freq.     185.66  E(vib)   ...       0.37 
freq.     194.44  E(vib)   ...       0.36 
freq.     210.72  E(vib)   ...       0.34 
freq.     214.20  E(vib)   ...       0.34 
freq.     222.73  E(vib)   ...       0.33 
freq.     236.60  E(vib)   ...       0.32 
freq.     246.88  E(vib)   ...       0.31 
freq.     257.74  E(vib)   ...       0.30 
freq.     264.33  E(vib)   ...       0.29 
freq.     298.23  E(vib)   ...       0.27 
freq.     304.60  E(vib)   ...       0.26 
freq.     319.18  E(vib)   ...       0.25 
freq.     322.53  E(vib)   ...       0.25 
freq.     324.24  E(vib)   ...       0.25 
freq.     346.93  E(vib)   ...       0.23 
freq.     358.53  E(vib)   ...       0.22 
freq.     367.00  E(vib)   ...       0.22 
freq.     372.74  E(vib)   ...       0.21 
freq.     383.97  E(vib)   ...       0.20 
freq.     387.70  E(vib)   ...       0.20 
freq.     388.51  E(vib)   ...       0.20 
freq.     402.30  E(vib)   ...       0.19 
freq.     405.45  E(vib)   ...       0.19 
freq.     434.67  E(vib)   ...       0.17 
freq.     440.15  E(vib)   ...       0.17 
freq.     444.15  E(vib)   ...       0.17 
freq.     485.06  E(vib)   ...       0.15 
freq.     489.75  E(vib)   ...       0.15 
freq.     508.10  E(vib)   ...       0.14 
freq.     520.74  E(vib)   ...       0.13 
freq.     524.59  E(vib)   ...       0.13 
freq.     534.31  E(vib)   ...       0.13 
freq.     542.83  E(vib)   ...       0.12 
freq.     547.96  E(vib)   ...       0.12 
freq.     558.12  E(vib)   ...       0.12 
freq.     573.38  E(vib)   ...       0.11 
freq.     576.57  E(vib)   ...       0.11 
freq.     597.12  E(vib)   ...       0.10 
freq.     612.62  E(vib)   ...       0.10 
freq.     631.44  E(vib)   ...       0.09 
freq.     641.09  E(vib)   ...       0.09 
freq.     651.17  E(vib)   ...       0.08 
freq.     670.04  E(vib)   ...       0.08 
freq.     675.18  E(vib)   ...       0.08 
freq.     694.72  E(vib)   ...       0.07 
freq.     715.83  E(vib)   ...       0.07 
freq.     723.18  E(vib)   ...       0.07 
freq.     733.71  E(vib)   ...       0.06 
freq.     745.60  E(vib)   ...       0.06 
freq.     748.96  E(vib)   ...       0.06 
freq.     772.27  E(vib)   ...       0.05 
freq.     805.98  E(vib)   ...       0.05 
freq.     811.09  E(vib)   ...       0.05 
freq.     830.24  E(vib)   ...       0.04 
freq.     845.09  E(vib)   ...       0.04 
freq.     846.41  E(vib)   ...       0.04 
freq.     871.20  E(vib)   ...       0.04 
freq.     889.73  E(vib)   ...       0.04 
freq.     908.91  E(vib)   ...       0.03 
freq.     923.40  E(vib)   ...       0.03 
freq.     933.95  E(vib)   ...       0.03 
freq.     936.18  E(vib)   ...       0.03 
freq.     964.89  E(vib)   ...       0.03 
freq.     966.10  E(vib)   ...       0.03 
freq.     983.89  E(vib)   ...       0.02 
freq.     984.53  E(vib)   ...       0.02 
freq.    1007.90  E(vib)   ...       0.02 
freq.    1036.31  E(vib)   ...       0.02 
freq.    1041.21  E(vib)   ...       0.02 
freq.    1056.50  E(vib)   ...       0.02 
freq.    1076.87  E(vib)   ...       0.02 
freq.    1101.14  E(vib)   ...       0.02 
freq.    1116.57  E(vib)   ...       0.01 
freq.    1127.35  E(vib)   ...       0.01 
freq.    1134.53  E(vib)   ...       0.01 
freq.    1135.61  E(vib)   ...       0.01 
freq.    1155.28  E(vib)   ...       0.01 
freq.    1155.50  E(vib)   ...       0.01 
freq.    1183.37  E(vib)   ...       0.01 
freq.    1187.31  E(vib)   ...       0.01 
freq.    1191.88  E(vib)   ...       0.01 
freq.    1194.29  E(vib)   ...       0.01 
freq.    1215.93  E(vib)   ...       0.01 
freq.    1225.37  E(vib)   ...       0.01 
freq.    1230.54  E(vib)   ...       0.01 
freq.    1242.10  E(vib)   ...       0.01 
freq.    1252.89  E(vib)   ...       0.01 
freq.    1261.10  E(vib)   ...       0.01 
freq.    1263.16  E(vib)   ...       0.01 
freq.    1287.65  E(vib)   ...       0.01 
freq.    1304.55  E(vib)   ...       0.01 
freq.    1317.08  E(vib)   ...       0.01 
freq.    1320.30  E(vib)   ...       0.01 
freq.    1340.01  E(vib)   ...       0.01 
freq.    1353.87  E(vib)   ...       0.01 
freq.    1369.13  E(vib)   ...       0.01 
freq.    1398.82  E(vib)   ...       0.00 
freq.    1404.85  E(vib)   ...       0.00 
freq.    1408.12  E(vib)   ...       0.00 
freq.    1419.83  E(vib)   ...       0.00 
freq.    1426.90  E(vib)   ...       0.00 
freq.    1458.66  E(vib)   ...       0.00 
freq.    1464.88  E(vib)   ...       0.00 
freq.    1471.74  E(vib)   ...       0.00 
freq.    1474.83  E(vib)   ...       0.00 
freq.    1495.69  E(vib)   ...       0.00 
freq.    1503.73  E(vib)   ...       0.00 
freq.    1506.31  E(vib)   ...       0.00 
freq.    1518.65  E(vib)   ...       0.00 
freq.    1519.65  E(vib)   ...       0.00 
freq.    1522.00  E(vib)   ...       0.00 
freq.    1534.67  E(vib)   ...       0.00 
freq.    1545.70  E(vib)   ...       0.00 
freq.    1550.09  E(vib)   ...       0.00 
freq.    1553.35  E(vib)   ...       0.00 
freq.    1560.89  E(vib)   ...       0.00 
freq.    1561.84  E(vib)   ...       0.00 
freq.    1563.63  E(vib)   ...       0.00 
freq.    1566.18  E(vib)   ...       0.00 
freq.    1567.85  E(vib)   ...       0.00 
freq.    1572.66  E(vib)   ...       0.00 
freq.    1574.88  E(vib)   ...       0.00 
freq.    1581.33  E(vib)   ...       0.00 
freq.    1595.36  E(vib)   ...       0.00 
freq.    1600.84  E(vib)   ...       0.00 
freq.    1605.52  E(vib)   ...       0.00 
freq.    1607.26  E(vib)   ...       0.00 
freq.    1623.12  E(vib)   ...       0.00 
freq.    1647.36  E(vib)   ...       0.00 
freq.    1666.69  E(vib)   ...       0.00 
freq.    1710.31  E(vib)   ...       0.00 
freq.    1722.27  E(vib)   ...       0.00 
freq.    1747.21  E(vib)   ...       0.00 
freq.    1779.01  E(vib)   ...       0.00 
freq.    1796.50  E(vib)   ...       0.00 
freq.    1865.00  E(vib)   ...       0.00 
freq.    1870.08  E(vib)   ...       0.00 
freq.    1916.70  E(vib)   ...       0.00 
freq.    3175.59  E(vib)   ...       0.00 
freq.    3176.92  E(vib)   ...       0.00 
freq.    3181.92  E(vib)   ...       0.00 
freq.    3196.06  E(vib)   ...       0.00 
freq.    3215.48  E(vib)   ...       0.00 
freq.    3242.46  E(vib)   ...       0.00 
freq.    3249.31  E(vib)   ...       0.00 
freq.    3255.82  E(vib)   ...       0.00 
freq.    3262.12  E(vib)   ...       0.00 
freq.    3272.45  E(vib)   ...       0.00 
freq.    3288.59  E(vib)   ...       0.00 
freq.    3292.27  E(vib)   ...       0.00 
freq.    3305.15  E(vib)   ...       0.00 
freq.    3308.48  E(vib)   ...       0.00 
freq.    3321.48  E(vib)   ...       0.00 
freq.    3358.14  E(vib)   ...       0.00 
freq.    3372.75  E(vib)   ...       0.00 
freq.    3425.52  E(vib)   ...       0.00 
freq.    3505.55  E(vib)   ...       0.00 
freq.    3514.01  E(vib)   ...       0.00 
freq.    3671.97  E(vib)   ...       0.00 
freq.    3752.63  E(vib)   ...       0.00 
freq.    3780.06  E(vib)   ...       0.00 
freq.    3822.46  E(vib)   ...       0.00 
freq.    4100.23  E(vib)   ...       0.00 
freq.    4130.32  E(vib)   ...       0.00 

------------
INNER ENERGY
------------

The inner energy is: U= E(el) + E(ZPE) + E(vib) + E(rot) + E(trans)
    E(el)   - is the total energy from the electronic structure calculation
              = E(kin-el) + E(nuc-el) + E(el-el) + E(nuc-nuc)
    E(ZPE)  - the the zero temperature vibrational energy from the frequency calculation
    E(vib)  - the the finite temperature correction to E(ZPE) due to population
              of excited vibrational states
    E(rot)  - is the rotational thermal energy
    E(trans)- is the translational thermal energy

Summary of contributions to the inner energy U:
Electronic energy                ...  -2605.18967827 Eh
Zero point energy                ...      0.52531238 Eh     329.64 kcal/mol
Thermal vibrational correction   ...      0.03313979 Eh      20.80 kcal/mol
Thermal rotational correction    ...      0.00141627 Eh       0.89 kcal/mol
Thermal translational correction ...      0.00141627 Eh       0.89 kcal/mol
-----------------------------------------------------------------------
Total thermal energy                  -2604.62839356 Eh


Summary of corrections to the electronic energy:
(perhaps to be used in another calculation)
Total thermal correction                  0.03597233 Eh      22.57 kcal/mol
Non-thermal (ZPE) correction              0.52531238 Eh     329.64 kcal/mol
-----------------------------------------------------------------------
Total correction                          0.56128471 Eh     352.21 kcal/mol


--------
ENTHALPY
--------

The enthalpy is H = U + kB*T
                kB is Boltzmann's constant
Total thermal energy              ...  -2604.62839356 Eh 
Thermal Enthalpy correction       ...      0.00094421 Eh       0.59 kcal/mol
-----------------------------------------------------------------------
Total Enthalpy                    ...  -2604.62744935 Eh


Note: Only C1 symmetry has been detected, increase convergence thresholds 
      if your molecule has a higher symmetry. Symmetry factor of 1.0 is   
      used for the rotational entropy correction. 
 

Note: Rotational entropy computed according to Herzberg 
Infrared and Raman Spectra, Chapter V,1, Van Nostrand Reinhold, 1945 
Point Group:  C1, Symmetry Number:   1  
Rotational constants in cm-1:     0.004229     0.001913     0.001699 

Vibrational entropy computed according to the QRRHO of S. Grimme
Chem.Eur.J. 2012 18 9955 using a reference frequency of 100.0 cm-1


-------
ENTROPY
-------

The entropy contributions are T*S = T*(S(el)+S(vib)+S(rot)+S(trans))
     S(el)   - electronic entropy
     S(vib)  - vibrational entropy
     S(rot)  - rotational entropy
     S(trans)- translational entropy
The entropies will be listed as multiplied by the temperature to get
units of energy

Electronic entropy                ...      0.00000000 Eh      0.00 kcal/mol
Vibrational entropy               ...      0.06041836 Eh     37.91 kcal/mol
Rotational entropy                ...      0.01805685 Eh     11.33 kcal/mol
Translational entropy             ...      0.02134978 Eh     13.40 kcal/mol
-----------------------------------------------------------------------
Final entropy term                ...      0.09982499 Eh     62.64 kcal/mol

In case the symmetry of your molecule has not been determined correctly
or in case you have a reason to use a different symmetry number we print 
out the resulting rotational entropy values for sn=1,12:

 non-linear molecules -----------------------------------
|  sn= 1 | S(rot)=       0.01805685 Eh     11.33 kcal/mol|
|  sn= 2 | S(rot)=       0.01740239 Eh     10.92 kcal/mol|
|  sn= 3 | S(rot)=       0.01701956 Eh     10.68 kcal/mol|
|  sn= 4 | S(rot)=       0.01674793 Eh     10.51 kcal/mol|
|  sn= 5 | S(rot)=       0.01653725 Eh     10.38 kcal/mol|
|  sn= 6 | S(rot)=       0.01636510 Eh     10.27 kcal/mol|
|  sn= 7 | S(rot)=       0.01621956 Eh     10.18 kcal/mol|
|  sn= 8 | S(rot)=       0.01609348 Eh     10.10 kcal/mol|
|  sn= 9 | S(rot)=       0.01598227 Eh     10.03 kcal/mol|
|  sn=10 | S(rot)=       0.01588279 Eh      9.97 kcal/mol|
|  sn=11 | S(rot)=       0.01579280 Eh      9.91 kcal/mol|
|  sn=12 | S(rot)=       0.01571065 Eh      9.86 kcal/mol|
 linear molecules ---------------------------------------
|  Dinfh | S(rot)=       0.01134762 Eh      7.12 kcal/mol|
|  Cinfv | S(rot)=       0.01200208 Eh      7.53 kcal/mol|
 --------------------------------------------------------


-------------------
GIBBS FREE ENERGY
-------------------

The Gibbs free energy is G = H - T*S

Total enthalpy                    ...  -2604.62744935 Eh 
Total entropy correction          ...     -0.09982499 Eh    -62.64 kcal/mol
-----------------------------------------------------------------------
Final Gibbs free energy         ...  -2604.72727434 Eh

For completeness - the Gibbs free energy minus the electronic energy
G-E(el)                           ...      0.46240393 Eh    290.16 kcal/mol



--------------------------------
SUGGESTED CITATIONS FOR THIS RUN
--------------------------------

Below you find a list of papers that are relevant to this ORCA run
We neither can nor want to force you to cite these papers, but we appreciate if you do
You receive ORCA, which is the product of decades of hard work by many enthusiastic individuals, for free
The only thing we kindly ask in return is that you cite our papers,
We deeply appreciate it, if you show your appreciation for ORCA by not just citing the generic ORCA reference.

Please note that relegating all ORCA citations to the supporting information does *not* help us.
SI sections are not indexed - citations you put there will not count into any citation statistics
But we need these citations in order to attract the funding resources that allow us to do what we are doing

Therefore, if you are a happy ORCA user, please consider citing a few of the papers listed below in the main body of your paper

In addition to the list printed below, the program has created the file FMN_s0.bibtex that contains the list in bibtex format
You can import this file easily into all common literature databanks and citation aid programs


List of essential papers. We consider these as the minimum necessary citations

  1. Neese,F.
     Software update: the ORCA program system, version 5.0
     WIRES Comput. Molec. Sci., 2022 12(1)e1606
     doi.org/10.1002/wcms.1606

List of papers to cite with high priority. The work reported in these papers was absolutely
necessary for this run to complete.
Our perspective: the developers of density functionals and basis sets usually get cited in chemistry papers
Good! But without the algorithms to do something with them, the functionals or basis sets would not do anything.
Hence, in our opinion, the algorithm design and method developments papers are equally worthy of getting cited

  1. Bykov,D.; Petrenko,T.; Izsak,R.; Kossmann,S.; Becker,U.; Valeev,E.; Neese,F.
     Efficient implementation of the analytic second derivatives of Hartree-Fock and hybrid DFT energies: a detailed analysis of different approximations
     Molec. Phys., 2015 113 1961-1977
     doi.org/10.1080/00268976.2015.1025114
  2. Stoychev,G.L.; Auer,A.A.; Neese,F.
     Automatic Generation of Auxiliary Basis Sets
     J. Theo. Comp. Chem., 2017 13 554-562
     doi.org/10.1021/acs.jctc.6b01041
  3. Kollmar,C.; Sivalingam,K.; Helmich-Paris,B.; Angeli,C.; Neese,F.
     A perturbation-based super-CI approach for the orbital optimization of a CASSCF wave function
     J. Comput. Chem., 2019 40 1463-1470
     doi.org/10.1002/jcc.25801
  4. Garcia-Rates,M.; Neese,F.
     Effect of the Solute Cavity on the Solvation Energy and its Derivatives within the Framework of the Gaussian Charge Scheme
     J. Comput. Chem., 2020 41 922-939
     doi.org/10.1002/jcc.26139
  5. Neese,F.
     The SHARK Integral Generation and Digestion System
     J. Comp. Chem., 2022  1-16
     doi.org/10.1002/jcc.26942
  6. Ugandi,M.; Roemelt,M.
     A recursive formulation of one-electron coupling coefficients for spin-adapted configuration interaction calculations featuring many unpaired electrons
     Int. J. Quantum Chem., 2023 123 e27045
     doi.org/10.1002/qua.27045

List of suggested additional citations. These are papers that are important in the 'surrounding' of 
of this run, or papers that preceded the highly important papers. If you like your results we are grateful for a citation.

  1. Neese,F.
     The ORCA program system
     WIRES Comput. Molec. Sci., 2012 2(1)73-78
     doi.org/10.1002/wcms.81
  2. Neese,F.
     Software update: the ORCA program system, version 4.0
     WIRES Comput. Molec. Sci., 2018 8(1)1-6
     doi.org/10.1002/wcms.1327
  3. Neese,F.; Wennmohs,F.; Becker,U.; Riplinger,C.
     The ORCA quantum chemistry program package
     J. Chem. Phys., 2020 152 Art. No. L224108
     doi.org/10.1063/5.0004608

List of optional additional citations

  1. Neese,F.
     Approximate second-order SCF convergence for spin unrestricted wavefunctions
     Chem. Phys. Lett., 2000 325(1-3)93-98
     doi.org/10.1016/s0009-2614(00)00662-x

Timings for individual modules:

Sum of individual times          ...    60590.936 sec (=1009.849 min)
Startup calculation              ...       13.490 sec (=   0.225 min)   0.0 %
SCF iterations                   ...        3.392 sec (=   0.057 min)   0.0 %
CASSCF iterations                ...     4222.372 sec (=  70.373 min)   7.0 %
Property integrals               ...        2.118 sec (=   0.035 min)   0.0 %
Property calculations            ...        0.810 sec (=   0.014 min)   0.0 %
SCF Gradient evaluation          ...       20.693 sec (=   0.345 min)   0.0 %
Numerical frequency calculation  ...    56328.061 sec (= 938.801 min)  93.0 %
                             ****ORCA TERMINATED NORMALLY****
TOTAL RUN TIME: 0 days 16 hours 14 minutes 31 seconds 911 msec
