
                                 *****************
                                 * O   R   C   A *
                                 *****************

                                            #,                                       
                                            ###                                      
                                            ####                                     
                                            #####                                    
                                            ######                                   
                                           ########,                                 
                                     ,,################,,,,,                         
                               ,,#################################,,                 
                          ,,##########################################,,             
                       ,#########################################, ''#####,          
                    ,#############################################,,   '####,        
                  ,##################################################,,,,####,       
                ,###########''''           ''''###############################       
              ,#####''   ,,,,##########,,,,          '''####'''          '####       
            ,##' ,,,,###########################,,,                        '##       
           ' ,,###''''                  '''############,,,                           
         ,,##''                                '''############,,,,        ,,,,,,###''
      ,#''                                            '''#######################'''  
     '                                                          ''''####''''         
             ,#######,   #######,   ,#######,      ##                                
            ,#'     '#,  ##    ##  ,#'     '#,    #''#        ,####,   ,####,        
            ##       ##  ##   ,#'  ##            #'  '#       #'       #'  '#        
            ##       ##  #######   ##           ,######,      #####,   #    #        
            '#,     ,#'  ##    ##  '#,     ,#' ,#      #,     #,   #   #,  ,#        
             '#######'   ##     ##  '#######'  #'      '#     '####' # '####'        



                #########################################################
                #                        -***-                          #
                #          Department of theory and spectroscopy        #
                #                                                       #
                #                      Frank Neese                      #
                #                                                       #
                #     Directorship, Architecture, Infrastructure        #
                #                    SHARK, DRIVERS                     #
                #        Core code/Algorithms in most modules           #
                #                                                       #
                #        Max Planck Institute fuer Kohlenforschung      #
                #                Kaiser Wilhelm Platz 1                 #
                #                 D-45470 Muelheim/Ruhr                 #
                #                      Germany                          #
                #                                                       #
                #                  All rights reserved                  #
                #                        -***-                          #
                #########################################################


                         Program Version 6.0.1  -  RELEASE   -


 With contributions from (in alphabetic order):
[Max-Planck-Institut fuer Kohlenforschung]                               
  Daniel Aravena         : Magnetic Suceptibility                        
  Michael Atanasov       : Ab Initio Ligand Field Theory (pilot matlab implementation)
  Alexander A. Auer      : GIAO ZORA, VPT2 properties, NMR spectrum      
  Ute Becker             : All parallelization in ORCA, NUMFREQ, NUMCALC 
  Giovanni Bistoni       : ED, misc. LED, open-shell LED, HFLD           
  Martin Brehm           : Molecular dynamics                            
  Dmytro Bykov           : pre 5.0 version of the SCF Hessian            
  Marcos Casanova-Páez   : Triplet and SCS-CIS(D). UHF-(DLPNO)-IP/EA/STEOM-CCSD. UHF-CVS-IP/STEOM-CCSD   
  Vijay G. Chilkuri      : MRCI spin determinant printing, contributions to CSF-ICE 
  Pauline Colinet        : FMM embedding                                 
  Dipayan Datta          : RHF DLPNO-CCSD density                        
  Achintya Kumar Dutta   : EOM-CC, STEOM-CC                              
  Nicolas Foglia         : Exact transition moments, OPA infrastructure, MCD improvements    
  Dmitry Ganyushin       : Spin-Orbit,Spin-Spin,Magnetic field MRCI      
  Miquel Garcia-Rates    : C-PCM and meta-GGA Hessian, CCSD/C-PCM, Gaussian charge scheme 
  Tiago L. C. Gouveia    : GS-ROHF, GS-ROCIS                             
  Yang Guo               : DLPNO-NEVPT2, F12-NEVPT2, CIM, IAO-localization        
  Andreas Hansen         : Spin unrestricted coupled pair/coupled cluster methods 
  Ingolf Harden          : AUTO-CI MPn and infrastructure                
  Benjamin Helmich-Paris : MC-RPA, TRAH-(SCF,CASSCF), AVAS, COSX integrals, SCF dyn. polar. 
  Lee Huntington         : MR-EOM, pCC                                   
  Robert Izsak           : Overlap fitted RIJCOSX, COSX-SCS-MP3, EOM     
  Riya Kayal             : Wick's Theorem for AUTO-CI, AUTO-CI UHF-CCSDT 
  Emily Kempfer          : AUTO-CI, RHF CISDT and CCSDT                  
  Christian Kollmar      : KDIIS, OOCD, Brueckner-CCSD(T), CCSD density, CASPT2, CASPT2-K, improved NEVPT2 
  Axel Koslowski         : Symmetry handling                             
  Simone Kossmann        : meta-GGA functionals, TD-DFT gradient, OOMP2, (MP2 Hessian; deprecated post 5.0) 
  Lucas Lang             : DCDCAS                                        
  Marvin Lechner         : AUTO-CI (C++ implementation), FIC-MRCC        
  Spencer Leger          : CASSCF response                               
  Dagmar Lenk            : GEPOL surface, SMD, ORCA-2-JSON               
  Dimitrios Liakos       : Extrapolation schemes; Compound Job, initial MDCI parallelization 
  Dimitrios Manganas     : Further ROCIS development; embedding schemes. LFT, Crystal Embedding 
  Dimitrios Pantazis     : SARC Basis sets                               
  Anastasios Papadopoulos: AUTO-CI, single reference methods and gradients 
  Taras Petrenko         : pre 6.0 DFT Hessian and TD-DFT gradient, (ASA, deprecated), ECA, 1-Electron XAS/XES, NRVS 
  Peter Pinski           : DLPNO-MP2, DLPNO-MP2 Gradient                 
  Christoph Reimann      : Effective Core Potentials                     
  Marius Retegan         : Local ZFS, SOC                                
  Christoph Riplinger    : Optimizer, TS searches, QM/MM, DLPNO-CCSD(T), (RO)-DLPNO pert. Triples 
  Michael Roemelt        : Original ROCIS implementation                 
  Masaaki Saitow         : Open-shell DLPNO-CCSD energy and density      
  Barbara Sandhoefer     : DKH picture change effects                    
  Kantharuban Sivalingam : CASSCF convergence/infrastructure, NEVPT2 and variants, FIC-MRCI 
  Bernardo de Souza      : ESD, SOC TD-DFT                               
  Georgi L. Stoychev     : AutoAux, RI-MP2 NMR, DLPNO-MP2 response, X2C  
  Van Anh Tran           : RI-MP2 g-tensors                              
  Willem Van den Heuvel  : Paramagnetic NMR                              
  Zikuan Wang            : NOTCH, Electric field optimization            
  Frank Wennmohs         : Technical directorship and infrastructure     
  Hang Xu                : AUTO-CI-Response properties                   
                                                                         
[FACCTs GmbH]                                                            
  Markus Bursch, Miquel Garcia-Rates, Christoph Riplinger, Bernardo de Souza, Georgi L. Stoychev 
                                                                 
  APM, Basis sets (HGBS, AHGBS, def-TZVP (Ac-Lr), def2-XVPD (La-Lu)), CI-OPT, improved COSX, DLPNO-Multilevel,           
  DOCKER, DRACO, updates on ESD, GOAT, IRC, LR-CPCM, MBIS, meta-GGA TD-DFT gradient, ML-optimized integration grids, 
  MM, NACMEs, nearIR, NEB, NEB-TS, NL-DFT gradient (VV10), 2- and 3-layer-ONIOM, interface openCOSMO-RS, QMMM,   
  Crystal-QMMM, SF, symmetry and pop. for TD-DFT, r2SCAN hybrids, SOLVATOR                                   
                                                                         
[Other institutions]                                                     
  V. Asgeirsson          : NEB                                           
  Christoph Bannwarth    : sTDA-DFT, sTD-DFT, PBEh-3c, B97-3c, D3        
  Sebastian Ehlert       : rSCAN, r2SCAN, r2SCAN-3c, D4, dhf basis sets  
  Marvin Friede          : D4 for Fr, Ra, Ac-Lr                          
  Lars Goerigk           : TD-DFT with DH, B97 family of functionals     
  Stefan Grimme          : VdW corrections, initial TS optimization, DFT functionals, gCP, sTDA/sTD-DF 
  Waldemar Hujo          : DFT-NL                                        
  H. Jonsson             : NEB                                           
  Holger Kruse           : gCP                                           
  Marcel Mueller         : wB97X-3c, vDZP basis set                      
  Hagen Neugebauer       : wr2SCAN                                       
  Tobias Risthaus        : range-separated hybrid DFT                    
  Lukas Wittmann         : regularized MP2, r2SCAN double-hybrids, wr2SCAN        
                                                                         
We gratefully acknowledge several colleagues who have allowed us to      
interface, adapt or use parts of their codes:                            
  Ed Valeev, F. Pavosevic, A. Kumar             : LibInt (2-el integral package), F12 methods 
  Garnet Chan, S. Sharma, J. Yang, R. Olivares  : DMRG                   
  Ulf Ekstrom                                   : XCFun DFT Library      
  Mihaly Kallay                                 : mrcc  (arbitrary order and MRCC methods)
  Frank Weinhold                                : gennbo (NPA and NBO analysis)           
  Simon Mueller                                 : openCOSMO-RS                            
  Christopher J. Cramer and Donald G. Truhlar   : smd solvation model                     
  S Lehtola, MJT Oliveira, MAL Marques          : LibXC Library                           
  Liviu Ungur et al                             : ANISO software                          


 Your calculation uses the libint2 library for the computation of 2-el integrals
 For citations please refer to: http://libint.valeyev.net

 Your ORCA version has been built with support for libXC version: 6.2.2
 For citations please refer to: https://libxc.gitlab.io

 This ORCA versions uses:
   CBLAS   interface :  Fast vector & matrix operations
   LAPACKE interface :  Fast linear algebra routines
   SCALAPACK package :  Parallel linear algebra routines
   Shared memory     :  Shared parallel matrices
   BLAS/LAPACK       :  OpenBLAS 0.3.27  USE64BITINT DYNAMIC_ARCH NO_AFFINITY Zen SINGLE_THREADED
        Core in use  :  Zen
   Copyright (c) 2011-2014, The OpenBLAS Project


================================================================================

----- Orbital basis set information -----
Your calculation utilizes the basis: def2-SVP
   F. Weigend and R. Ahlrichs, Phys. Chem. Chem. Phys. 7, 3297 (2005).

----- AuxJ basis set information -----
Your calculation utilizes the AutoAux generation procedure.
  G. L. Stoychev, A. A. Auer, F. Neese, J. Chem. Theory Comput. 13, 554 (2017)

----- AuxC basis set information -----
Your calculation utilizes the AutoAux generation procedure.
  G. L. Stoychev, A. A. Auer, F. Neese, J. Chem. Theory Comput. 13, 554 (2017)

----- AuxJK basis set information -----
Your calculation utilizes the AutoAux generation procedure.
  G. L. Stoychev, A. A. Auer, F. Neese, J. Chem. Theory Comput. 13, 554 (2017)

----- AuxX basis set information -----
Your calculation utilizes the AutoAux generation procedure.
  G. L. Stoychev, A. A. Auer, F. Neese, J. Chem. Theory Comput. 13, 554 (2017)

================================================================================
                                        WARNINGS
                       Please study these warnings very carefully!
================================================================================

WARNING: Old DensityContainer found on disk!
         Will remove this file - 
         If you want to keep old densities, please start your calculation with a different basename. 

WARNING: Gradients needed for Numerical Frequencies
  ===> : Setting RunTyp to EnGrad

WARNING: The environment variable RSH_COMMAND is not set!
  ===> : All Displacements for the Numerical Hessian or Gradient calculation
         will be started on localhost

================================================================================
                                       INPUT FILE
================================================================================
NAME = FMN_s0.inp
|  1> ! def2-SVP CPCM(water) autoaux numfreq
|  2> 
|  3> %pal nprocs 64 end
|  4> 
|  5> %casscf
|  6>  nel 6
|  7>  norb 6
|  8>  nroots 6
|  9>  mult 3
| 10>  iroot 0
| 11>  maxiter 1000
| 12> end
| 13> 
| 14> *xyz -2 3
| 15> 7       18.821400000     -0.170990000     11.320420000
| 16> 6       18.054362000     -1.111959000     10.466201000
| 17> 6       18.989491000     -1.609237000      9.333687000
| 18> 8       18.440464000     -2.081895000      8.347918000
| 19> 6       16.763270000     -0.440837000      9.998006000
| 20> 16      15.473596000     -1.610686000      9.497646000
| 21> 8       20.193764000     -1.498353000      9.565739000
| 22> 7       20.682568000      0.719958000      6.486620000
| 23> 6       21.077198000     -0.421712000      5.893718000
| 24> 8       22.218899000     -0.817108000      5.896640000
| 25> 7       20.120183000     -1.196114000      5.238606000
| 26> 6       18.794066000     -0.914169000      5.137238000
| 27> 8       18.007067000     -1.625909000      4.566501000
| 28> 6       18.424885000      0.333770000      5.773497000
| 29> 7       17.133974000      0.743382000      5.746190000
| 30> 6       16.742796000      1.883803000      6.354452000
| 31> 6       15.393147000      2.306965000      6.312699000
| 32> 6       14.977298000      3.440493000      6.937577000
| 33> 6       13.535388000      3.870562000      6.876287000
| 34> 6       15.951479000      4.228784000      7.673363000
| 35> 6       15.517060000      5.479227000      8.392443000
| 36> 6       17.259016000      3.833201000      7.717456000
| 37> 6       17.726045000      2.668262000      7.063333000
| 38> 7       19.042230000      2.258699000      7.071566000
| 39> 6       19.419807000      1.092946000      6.444801000
| 40> 6       20.078920000      3.035850000      7.759125000
| 41> 6       20.364375000      2.518684000      9.171615000
| 42> 8       19.174348000      2.344719000      9.903159000
| 43> 6       21.306641000      3.416305000      9.983588000
| 44> 8       20.629289000      4.581279000     10.387426000
| 45> 6       22.636587000      3.738405000      9.296329000
| 46> 8       23.201745000      2.580403000      8.767988000
| 47> 6       23.592455000      4.490009000     10.225885000
| 48> 8       23.779346000      3.883797000     11.464792000
| 49> 15      24.880114000      2.640461000     11.711610000
| 50> 8       24.796236000      2.410834000     13.194969000
| 51> 8       24.322801000      1.489770000     10.872948000
| 52> 8       26.198699000      3.163757000     11.200739000
| 53> 1       18.398957000     -0.038220000     12.229258000
| 54> 1       18.929285000      0.746505000     10.880791000
| 55> 1       17.821445000     -1.969312000     11.096551000
| 56> 1       16.343943000      0.152079000     10.810902000
| 57> 1       16.959654000      0.228153000      9.162353000
| 58> 1       16.466068000      0.171788000      5.263087000
| 59> 1       20.442894000     -2.047431000      4.818164000
| 60> 1       14.693139000      1.691743000      5.762817000
| 61> 1       12.949223000      3.166492000      6.288547000
| 62> 1       13.438389000      4.858931000      6.422743000
| 63> 1       13.098893000      3.928953000      7.875253000
| 64> 1       14.753051000      5.257911000      9.140566000
| 65> 1       15.086810000      6.202991000      7.697140000
| 66> 1       16.360028000      5.949440000      8.895142000
| 67> 1       17.945575000      4.434467000      8.286797000
| 68> 1       19.775678000      4.075286000      7.762577000
| 69> 1       20.983629000      2.962471000      7.170900000
| 70> 1       20.813315000      1.536026000      9.083720000
| 71> 1       18.924280000      3.172695000     10.295988000
| 72> 1       21.524807000      2.870884000     10.899165000
| 73> 1       20.629820000      5.231832000      9.698226000
| 74> 1       22.437636000      4.413294000      8.457174000
| 75> 1       23.610740000      2.075494000      9.494706000
| 76> 1       23.193300000      5.490489000     10.400153000
| 77> 1       24.544344000      4.602783000      9.700437000
| 78> 1       19.755412000     -0.544952000     11.441044000
| 79> *
| 80> 
| 81> 
| 82> 
| 83>                          ****END OF INPUT****
================================================================================

                     *******************************
                     * Energy+Gradient Calculation *
                     *******************************

---------------------------------
CARTESIAN COORDINATES (ANGSTROEM)
---------------------------------
  N     18.821400   -0.170990   11.320420
  C     18.054362   -1.111959   10.466201
  C     18.989491   -1.609237    9.333687
  O     18.440464   -2.081895    8.347918
  C     16.763270   -0.440837    9.998006
  S     15.473596   -1.610686    9.497646
  O     20.193764   -1.498353    9.565739
  N     20.682568    0.719958    6.486620
  C     21.077198   -0.421712    5.893718
  O     22.218899   -0.817108    5.896640
  N     20.120183   -1.196114    5.238606
  C     18.794066   -0.914169    5.137238
  O     18.007067   -1.625909    4.566501
  C     18.424885    0.333770    5.773497
  N     17.133974    0.743382    5.746190
  C     16.742796    1.883803    6.354452
  C     15.393147    2.306965    6.312699
  C     14.977298    3.440493    6.937577
  C     13.535388    3.870562    6.876287
  C     15.951479    4.228784    7.673363
  C     15.517060    5.479227    8.392443
  C     17.259016    3.833201    7.717456
  C     17.726045    2.668262    7.063333
  N     19.042230    2.258699    7.071566
  C     19.419807    1.092946    6.444801
  C     20.078920    3.035850    7.759125
  C     20.364375    2.518684    9.171615
  O     19.174348    2.344719    9.903159
  C     21.306641    3.416305    9.983588
  O     20.629289    4.581279   10.387426
  C     22.636587    3.738405    9.296329
  O     23.201745    2.580403    8.767988
  C     23.592455    4.490009   10.225885
  O     23.779346    3.883797   11.464792
  P     24.880114    2.640461   11.711610
  O     24.796236    2.410834   13.194969
  O     24.322801    1.489770   10.872948
  O     26.198699    3.163757   11.200739
  H     18.398957   -0.038220   12.229258
  H     18.929285    0.746505   10.880791
  H     17.821445   -1.969312   11.096551
  H     16.343943    0.152079   10.810902
  H     16.959654    0.228153    9.162353
  H     16.466068    0.171788    5.263087
  H     20.442894   -2.047431    4.818164
  H     14.693139    1.691743    5.762817
  H     12.949223    3.166492    6.288547
  H     13.438389    4.858931    6.422743
  H     13.098893    3.928953    7.875253
  H     14.753051    5.257911    9.140566
  H     15.086810    6.202991    7.697140
  H     16.360028    5.949440    8.895142
  H     17.945575    4.434467    8.286797
  H     19.775678    4.075286    7.762577
  H     20.983629    2.962471    7.170900
  H     20.813315    1.536026    9.083720
  H     18.924280    3.172695   10.295988
  H     21.524807    2.870884   10.899165
  H     20.629820    5.231832    9.698226
  H     22.437636    4.413294    8.457174
  H     23.610740    2.075494    9.494706
  H     23.193300    5.490489   10.400153
  H     24.544344    4.602783    9.700437
  H     19.755412   -0.544952   11.441044

----------------------------
CARTESIAN COORDINATES (A.U.)
----------------------------
  NO LB      ZA    FRAG     MASS         X           Y           Z
   0 N     7.0000    0    14.007   35.567291   -0.323124   21.392494
   1 C     6.0000    0    12.011   34.117800   -2.101298   19.778254
   2 C     6.0000    0    12.011   35.884937   -3.041017   17.638112
   3 O     8.0000    0    15.999   34.847427   -3.934211   15.775279
   4 C     6.0000    0    12.011   31.677989   -0.833061   18.893493
   5 S    16.0000    0    32.060   29.240859   -3.043755   17.947950
   6 O     8.0000    0    15.999   38.160684   -2.831477   18.076627
   7 N     7.0000    0    14.007   39.084389    1.360523   12.257935
   8 C     6.0000    0    12.011   39.830132   -0.796920   11.137513
   9 O     8.0000    0    15.999   41.987634   -1.544110   11.143035
  10 N     7.0000    0    14.007   38.021636   -2.260328    9.899531
  11 C     6.0000    0    12.011   35.515638   -1.727529    9.707973
  12 O     8.0000    0    15.999   34.028425   -3.072523    8.629436
  13 C     6.0000    0    12.011   34.817987    0.630734   10.910328
  14 N     7.0000    0    14.007   32.378518    1.404788   10.858725
  15 C     6.0000    0    12.011   31.639299    3.559872   12.008174
  16 C     6.0000    0    12.011   29.088832    4.359532   11.929272
  17 C     6.0000    0    12.011   28.302991    6.501590   13.110121
  18 C     6.0000    0    12.011   25.578176    7.314302   12.994299
  19 C     6.0000    0    12.011   30.143927    7.991244   14.500555
  20 C     6.0000    0    12.011   29.322994   10.354238   15.859419
  21 C     6.0000    0    12.011   32.614814    7.243700   14.583878
  22 C     6.0000    0    12.011   33.497370    5.042284   13.347765
  23 N     7.0000    0    14.007   35.984600    4.268323   13.363323
  24 C     6.0000    0    12.011   36.698117    2.065369   12.178909
  25 C     6.0000    0    12.011   37.943660    5.736925   14.662621
  26 C     6.0000    0    12.011   38.483092    4.759623   17.331841
  27 O     8.0000    0    15.999   36.234267    4.430877   18.714258
  28 C     6.0000    0    12.011   40.263716    6.455881   18.866247
  29 O     8.0000    0    15.999   38.983707    8.657363   19.629390
  30 C     6.0000    0    12.011   42.776950    7.064562   17.567516
  31 O     8.0000    0    15.999   43.844944    4.876255   16.569096
  32 C     6.0000    0    12.011   44.583279    8.484887   19.324122
  33 O     8.0000    0    15.999   44.936452    7.339313   21.665317
  34 P    15.0000    0    30.974   47.016602    4.989748   22.131735
  35 O     8.0000    0    15.999   46.858095    4.555816   24.934878
  36 O     8.0000    0    15.999   45.963433    2.815257   20.546894
  37 O     8.0000    0    15.999   49.508366    5.978634   21.166329
  38 H     1.0000    0     1.008   34.768990   -0.072225   23.109948
  39 H     1.0000    0     1.008   35.771165    1.410690   20.561715
  40 H     1.0000    0     1.008   33.677650   -3.721460   20.969442
  41 H     1.0000    0     1.008   30.885576    0.287388   20.429644
  42 H     1.0000    0     1.008   32.049101    0.431147   17.314338
  43 H     1.0000    0     1.008   31.116359    0.324632    9.945793
  44 H     1.0000    0     1.008   38.631471   -3.869084    9.105010
  45 H     1.0000    0     1.008   27.766009    3.196931   10.890146
  46 H     1.0000    0     1.008   24.470485    5.983803   11.883632
  47 H     1.0000    0     1.008   25.394875    9.182049   12.137225
  48 H     1.0000    0     1.008   24.753320    7.424645   14.882071
  49 H     1.0000    0     1.008   27.879226    9.936012   17.273166
  50 H     1.0000    0     1.008   28.509939   11.721954   14.545487
  51 H     1.0000    0     1.008   30.915972   11.242812   16.809382
  52 H     1.0000    0     1.008   33.912222    8.379928   15.659777
  53 H     1.0000    0     1.008   37.370616    7.701174   14.669145
  54 H     1.0000    0     1.008   39.653312    5.598259   13.551037
  55 H     1.0000    0     1.008   39.331465    2.902668   17.165743
  56 H     1.0000    0     1.008   35.761706    5.995525   19.456598
  57 H     1.0000    0     1.008   40.675990    5.425185   20.596437
  58 H     1.0000    0     1.008   38.984710    9.886730   18.326991
  59 H     1.0000    0     1.008   42.400987    8.339917   15.981743
  60 H     1.0000    0     1.008   44.617832    3.922115   17.942394
  61 H     1.0000    0     1.008   43.828985   10.375521   19.653441
  62 H     1.0000    0     1.008   46.382088    8.697999   18.331169
  63 H     1.0000    0     1.008   37.332318   -1.029810   21.620440

--------------------------------
INTERNAL COORDINATES (ANGSTROEM)
--------------------------------
 N      0   0   0     0.000000000000     0.00000000     0.00000000
 C      1   0   0     1.484405622586     0.00000000     0.00000000
 C      2   1   0     1.550593311001   108.17784504     0.00000000
 O      3   2   1     1.223346538416   116.21785558   199.65123654
 C      2   1   3     1.528571179034   109.53585601   233.64351215
 S      5   2   1     1.811674871128   113.72573671   201.71375318
 O      3   2   1     1.231428784254   115.04112327    21.13195439
 N      7   3   2     3.826330730517    91.46072227   238.88211652
 C      8   7   3     1.345613617427    84.26988513   262.49481740
 O      9   8   7     1.208233300444   123.62185082   271.08388108
 N      9   8   7     1.394542183074   118.48146148    91.05063801
 C     11   9   8     1.359542111204   126.10382380   359.73595651
 O     12  11   9     1.204857658302   123.36305896   180.60613725
 C     12  11   9     1.448610324954   113.23429758     1.14753654
 N     14  12  11     1.354613920168   119.63729296   179.77383352
 C     15  14  12     1.350393626158   121.48933010   178.39507441
 C     16  15  14     1.415048343504   121.03383533   179.59791293
 C     17  16  15     1.359517794098   121.83774274   178.90556774
 C     18  17  16     1.505928370462   120.81594334   179.90150971
 C     18  17  16     1.453207610508   118.68198518   359.61592015
 C     20  18  17     1.506453985427   119.90949996   180.86834966
 C     20  18  17     1.366778368612   120.04263955     0.59971540
 C     22  20  18     1.415300625200   122.61568495     0.21676847
 N     23  22  20     1.378460223395   123.83995076   178.81949244
 C      8   7   3     1.317358804588    93.85539852    22.77922700
 C     24  23  22     1.466774424164   121.34755684   358.95420323
 C     26  24  23     1.531036651645   112.66015116    96.07972594
 O     27  26  24     1.407687716040   111.31944284   310.60008601
 C     27  26  24     1.533912913801   113.90516548   187.59885003
 O     29  27  26     1.406788997264   109.92436201    73.59439126
 C     29  27  26     1.531283679139   114.77362628   306.43420018
 O     31  29  27     1.392665217936   110.35390104   313.30383643
 C     31  29  27     1.530577199417   111.90815264   186.99592402
 O     33  31  29     1.391873481849   114.24003468    51.41045385
 P     34  33  31     1.678837015271   122.78274009    83.46776491
 O     35  34  33     1.503368883839   102.80289219   175.50042400
 O     35  34  33     1.529065566839   103.75170812   294.45696833
 O     35  34  33     1.507811090449   105.45895309    53.70686211
 H      1   2   3     1.010975999415   112.62224709   198.69872274
 H      1   2   3     1.023088415481   112.06674527    76.39994358
 H      2   1   3     1.089332648000   106.04545715   114.96687361
 H      5   2   1     1.090038725368   109.59214719   320.72414291
 H      5   2   1     1.088315318263   110.65006097    79.61501785
 H     15  14  12     1.003098516738   118.15982986   358.74105810
 H     11   9   8     1.002823264276   116.58520497   180.85555903
 H     17  16  15     1.082071866038   117.51534232   359.02565077
 H     19  18  17     1.088458671574   110.66361048   359.84190020
 H     19  18  17     1.091780310364   111.13146169   239.51815111
 H     19  18  17     1.091728200177   111.15283165   120.17634705
 H     21  20  18     1.091960872498   111.13459544    59.37455486
 H     21  20  18     1.091968704682   111.09107585   300.16777899
 H     21  20  18     1.088302163461   110.83979281   179.78989558
 H     22  20  18     1.075654794773   117.76835119   181.04726055
 H     26  24  23     1.082771824977   108.19086809   331.79701951
 H     26  24  23     1.081615228696   107.47619841   215.96375744
 H     27  26  24     1.083923152068   107.97738184    66.88963641
 H     28  27  26     0.949943621717   109.25228250   275.34124767
 H     29  27  26     1.087824302783   105.98130904   187.34271136
 H     30  29  27     0.947742648492   111.06399066   276.89967476
 H     31  29  27     1.095097154022   108.40688596    70.40630033
 H     32  31  29     0.974848223997   108.54864361   282.32818730
 H     33  31  29     1.091171059114   108.58973229   291.02291678
 H     33  31  29     1.093117671663   107.61124266   174.94201294
 H      1   2   3     1.013299631385   108.11090602   319.26755485

---------------------------
INTERNAL COORDINATES (A.U.)
---------------------------
 N      0   0   0     0.000000000000     0.00000000     0.00000000
 C      1   0   0     2.805120098341     0.00000000     0.00000000
 C      2   1   0     2.930196702882   108.17784504     0.00000000
 O      3   2   1     2.311789924486   116.21785558   199.65123654
 C      2   1   3     2.888580904579   109.53585601   233.64351215
 S      5   2   1     3.423569350139   113.72573671   201.71375318
 O      3   2   1     2.327063155667   115.04112327    21.13195439
 N      7   3   2     7.230717178484    91.46072227   238.88211652
 C      8   7   3     2.542841219011    84.26988513   262.49481740
 O      9   8   7     2.283230043722   123.62185082   271.08388108
 N      9   8   7     2.635302808211   118.48146148    91.05063801
 C     11   9   8     2.569162257709   126.10382380   359.73595651
 O     12  11   9     2.276851004549   123.36305896   180.60613725
 C     12  11   9     2.737476788934   113.23429758     1.14753654
 N     14  12  11     2.559849326316   119.63729296   179.77383352
 C     15  14  12     2.551874126432   121.48933010   178.39507441
 C     16  15  14     2.674053835482   121.03383533   179.59791293
 C     17  16  15     2.569116305038   121.83774274   178.90556774
 C     18  17  16     2.845792197475   120.81594334   179.90150971
 C     18  17  16     2.746164399590   118.68198518   359.61592015
 C     20  18  17     2.846785465812   119.90949996   180.86834966
 C     20  18  17     2.582836802445   120.04263955     0.59971540
 C     22  20  18     2.674530578795   122.61568495     0.21676847
 N     23  22  20     2.604912308721   123.83995076   178.81949244
 C      8   7   3     2.489447360782    93.85539852    22.77922700
 C     24  23  22     2.771801961910   121.34755684   358.95420323
 C     26  24  23     2.893239972605   112.66015116    96.07972594
 O     27  26  24     2.660144265401   111.31944284   310.60008601
 C     27  26  24     2.898675320369   113.90516548   187.59885003
 O     29  27  26     2.658445933043   109.92436201    73.59439126
 C     29  27  26     2.893706786916   114.77362628   306.43420018
 O     31  29  27     2.631755858137   110.35390104   313.30383643
 C     31  29  27     2.892371733723   111.90815264   186.99592402
 O     33  31  29     2.630259693762   114.24003468    51.41045385
 P     34  33  31     3.172542182352   122.78274009    83.46776491
 O     35  34  33     2.840955468714   102.80289219   175.50042400
 O     35  34  33     2.889515162136   103.75170812   294.45696833
 O     35  34  33     2.849350022638   105.45895309    53.70686211
 H      1   2   3     1.910467766862   112.62224709   198.69872274
 H      1   2   3     1.933356916046   112.06674527    76.39994358
 H      2   1   3     2.058540373459   106.04545715   114.96687361
 H      5   2   1     2.059874666313   109.59214719   320.72414291
 H      5   2   1     2.056617898868   110.65006097    79.61501785
 H     15  14  12     1.895581481977   118.15982986   358.74105810
 H     11   9   8     1.895061330207   116.58520497   180.85555903
 H     17  16  15     2.044819484034   117.51534232   359.02565077
 H     19  18  17     2.056888797367   110.66361048   359.84190020
 H     19  18  17     2.063165784995   111.13146169   239.51815111
 H     19  18  17     2.063067311014   111.15283165   120.17634705
 H     21  20  18     2.063506997978   111.13459544    59.37455486
 H     21  20  18     2.063521798662   111.09107585   300.16777899
 H     21  20  18     2.056593039895   110.83979281   179.78989558
 H     22  20  18     2.032692976760   117.76835119   181.04726055
 H     26  24  23     2.046142214733   108.19086809   331.79701951
 H     26  24  23     2.043956564514   107.47619841   215.96375744
 H     27  26  24     2.048317907625   107.97738184    66.88963641
 H     28  27  26     1.795133287711   109.25228250   275.34124767
 H     29  27  26     2.055690014084   105.98130904   187.34271136
 H     30  29  27     1.790974051086   111.06399066   276.89967476
 H     31  29  27     2.069433711138   108.40688596    70.40630033
 H     32  31  29     1.842196165494   108.54864361   282.32818730
 H     33  31  29     2.062014466987   108.58973229   291.02291678
 H     33  31  29     2.065693031592   107.61124266   174.94201294
 H      1   2   3     1.914858794920   108.11090602   319.26755485

---------------------
BASIS SET INFORMATION
---------------------
There are 6 groups of distinct atoms

 Group   1 Type N   : 7s4p1d contracted to 3s2p1d pattern {511/31/1}
 Group   2 Type C   : 7s4p1d contracted to 3s2p1d pattern {511/31/1}
 Group   3 Type O   : 7s4p1d contracted to 3s2p1d pattern {511/31/1}
 Group   4 Type S   : 10s7p1d contracted to 4s3p1d pattern {5311/511/1}
 Group   5 Type P   : 10s7p1d contracted to 4s3p1d pattern {5311/511/1}
 Group   6 Type H   : 4s1p contracted to 2s1p pattern {31/1}

Atom   0N    basis set group =>   1
Atom   1C    basis set group =>   2
Atom   2C    basis set group =>   2
Atom   3O    basis set group =>   3
Atom   4C    basis set group =>   2
Atom   5S    basis set group =>   4
Atom   6O    basis set group =>   3
Atom   7N    basis set group =>   1
Atom   8C    basis set group =>   2
Atom   9O    basis set group =>   3
Atom  10N    basis set group =>   1
Atom  11C    basis set group =>   2
Atom  12O    basis set group =>   3
Atom  13C    basis set group =>   2
Atom  14N    basis set group =>   1
Atom  15C    basis set group =>   2
Atom  16C    basis set group =>   2
Atom  17C    basis set group =>   2
Atom  18C    basis set group =>   2
Atom  19C    basis set group =>   2
Atom  20C    basis set group =>   2
Atom  21C    basis set group =>   2
Atom  22C    basis set group =>   2
Atom  23N    basis set group =>   1
Atom  24C    basis set group =>   2
Atom  25C    basis set group =>   2
Atom  26C    basis set group =>   2
Atom  27O    basis set group =>   3
Atom  28C    basis set group =>   2
Atom  29O    basis set group =>   3
Atom  30C    basis set group =>   2
Atom  31O    basis set group =>   3
Atom  32C    basis set group =>   2
Atom  33O    basis set group =>   3
Atom  34P    basis set group =>   5
Atom  35O    basis set group =>   3
Atom  36O    basis set group =>   3
Atom  37O    basis set group =>   3
Atom  38H    basis set group =>   6
Atom  39H    basis set group =>   6
Atom  40H    basis set group =>   6
Atom  41H    basis set group =>   6
Atom  42H    basis set group =>   6
Atom  43H    basis set group =>   6
Atom  44H    basis set group =>   6
Atom  45H    basis set group =>   6
Atom  46H    basis set group =>   6
Atom  47H    basis set group =>   6
Atom  48H    basis set group =>   6
Atom  49H    basis set group =>   6
Atom  50H    basis set group =>   6
Atom  51H    basis set group =>   6
Atom  52H    basis set group =>   6
Atom  53H    basis set group =>   6
Atom  54H    basis set group =>   6
Atom  55H    basis set group =>   6
Atom  56H    basis set group =>   6
Atom  57H    basis set group =>   6
Atom  58H    basis set group =>   6
Atom  59H    basis set group =>   6
Atom  60H    basis set group =>   6
Atom  61H    basis set group =>   6
Atom  62H    basis set group =>   6
Atom  63H    basis set group =>   6
---------------------------------
AUXILIARY/J BASIS SET INFORMATION
---------------------------------
There are 6 groups of distinct atoms

 Group   1 Type N   : 14s11p10d2f contracted to 14s11p10d2f pattern {11111111111111/11111111111/1111111111/11}
 Group   2 Type C   : 14s11p10d2f contracted to 14s11p10d2f pattern {11111111111111/11111111111/1111111111/11}
 Group   3 Type O   : 14s11p10d2f contracted to 14s11p10d2f pattern {11111111111111/11111111111/1111111111/11}
 Group   4 Type S   : 17s14p13d4f contracted to 17s14p13d4f pattern {11111111111111111/11111111111111/1111111111111/1111}
 Group   5 Type P   : 17s14p13d4f contracted to 17s14p13d4f pattern {11111111111111111/11111111111111/1111111111111/1111}
 Group   6 Type H   : 9s2p1d contracted to 9s2p1d pattern {111111111/11/1}

Atom   0N    basis set group =>   1
Atom   1C    basis set group =>   2
Atom   2C    basis set group =>   2
Atom   3O    basis set group =>   3
Atom   4C    basis set group =>   2
Atom   5S    basis set group =>   4
Atom   6O    basis set group =>   3
Atom   7N    basis set group =>   1
Atom   8C    basis set group =>   2
Atom   9O    basis set group =>   3
Atom  10N    basis set group =>   1
Atom  11C    basis set group =>   2
Atom  12O    basis set group =>   3
Atom  13C    basis set group =>   2
Atom  14N    basis set group =>   1
Atom  15C    basis set group =>   2
Atom  16C    basis set group =>   2
Atom  17C    basis set group =>   2
Atom  18C    basis set group =>   2
Atom  19C    basis set group =>   2
Atom  20C    basis set group =>   2
Atom  21C    basis set group =>   2
Atom  22C    basis set group =>   2
Atom  23N    basis set group =>   1
Atom  24C    basis set group =>   2
Atom  25C    basis set group =>   2
Atom  26C    basis set group =>   2
Atom  27O    basis set group =>   3
Atom  28C    basis set group =>   2
Atom  29O    basis set group =>   3
Atom  30C    basis set group =>   2
Atom  31O    basis set group =>   3
Atom  32C    basis set group =>   2
Atom  33O    basis set group =>   3
Atom  34P    basis set group =>   5
Atom  35O    basis set group =>   3
Atom  36O    basis set group =>   3
Atom  37O    basis set group =>   3
Atom  38H    basis set group =>   6
Atom  39H    basis set group =>   6
Atom  40H    basis set group =>   6
Atom  41H    basis set group =>   6
Atom  42H    basis set group =>   6
Atom  43H    basis set group =>   6
Atom  44H    basis set group =>   6
Atom  45H    basis set group =>   6
Atom  46H    basis set group =>   6
Atom  47H    basis set group =>   6
Atom  48H    basis set group =>   6
Atom  49H    basis set group =>   6
Atom  50H    basis set group =>   6
Atom  51H    basis set group =>   6
Atom  52H    basis set group =>   6
Atom  53H    basis set group =>   6
Atom  54H    basis set group =>   6
Atom  55H    basis set group =>   6
Atom  56H    basis set group =>   6
Atom  57H    basis set group =>   6
Atom  58H    basis set group =>   6
Atom  59H    basis set group =>   6
Atom  60H    basis set group =>   6
Atom  61H    basis set group =>   6
Atom  62H    basis set group =>   6
Atom  63H    basis set group =>   6
---------------------------------
AUXILIARY/C BASIS SET INFORMATION
---------------------------------
There are 6 groups of distinct atoms

 Group   1 Type N   : 14s11p10d2f contracted to 14s11p10d2f pattern {11111111111111/11111111111/1111111111/11}
 Group   2 Type C   : 14s11p10d2f contracted to 14s11p10d2f pattern {11111111111111/11111111111/1111111111/11}
 Group   3 Type O   : 14s11p10d2f contracted to 14s11p10d2f pattern {11111111111111/11111111111/1111111111/11}
 Group   4 Type S   : 17s14p13d4f contracted to 17s14p13d4f pattern {11111111111111111/11111111111111/1111111111111/1111}
 Group   5 Type P   : 17s14p13d4f contracted to 17s14p13d4f pattern {11111111111111111/11111111111111/1111111111111/1111}
 Group   6 Type H   : 9s2p1d contracted to 9s2p1d pattern {111111111/11/1}

Atom   0N    basis set group =>   1
Atom   1C    basis set group =>   2
Atom   2C    basis set group =>   2
Atom   3O    basis set group =>   3
Atom   4C    basis set group =>   2
Atom   5S    basis set group =>   4
Atom   6O    basis set group =>   3
Atom   7N    basis set group =>   1
Atom   8C    basis set group =>   2
Atom   9O    basis set group =>   3
Atom  10N    basis set group =>   1
Atom  11C    basis set group =>   2
Atom  12O    basis set group =>   3
Atom  13C    basis set group =>   2
Atom  14N    basis set group =>   1
Atom  15C    basis set group =>   2
Atom  16C    basis set group =>   2
Atom  17C    basis set group =>   2
Atom  18C    basis set group =>   2
Atom  19C    basis set group =>   2
Atom  20C    basis set group =>   2
Atom  21C    basis set group =>   2
Atom  22C    basis set group =>   2
Atom  23N    basis set group =>   1
Atom  24C    basis set group =>   2
Atom  25C    basis set group =>   2
Atom  26C    basis set group =>   2
Atom  27O    basis set group =>   3
Atom  28C    basis set group =>   2
Atom  29O    basis set group =>   3
Atom  30C    basis set group =>   2
Atom  31O    basis set group =>   3
Atom  32C    basis set group =>   2
Atom  33O    basis set group =>   3
Atom  34P    basis set group =>   5
Atom  35O    basis set group =>   3
Atom  36O    basis set group =>   3
Atom  37O    basis set group =>   3
Atom  38H    basis set group =>   6
Atom  39H    basis set group =>   6
Atom  40H    basis set group =>   6
Atom  41H    basis set group =>   6
Atom  42H    basis set group =>   6
Atom  43H    basis set group =>   6
Atom  44H    basis set group =>   6
Atom  45H    basis set group =>   6
Atom  46H    basis set group =>   6
Atom  47H    basis set group =>   6
Atom  48H    basis set group =>   6
Atom  49H    basis set group =>   6
Atom  50H    basis set group =>   6
Atom  51H    basis set group =>   6
Atom  52H    basis set group =>   6
Atom  53H    basis set group =>   6
Atom  54H    basis set group =>   6
Atom  55H    basis set group =>   6
Atom  56H    basis set group =>   6
Atom  57H    basis set group =>   6
Atom  58H    basis set group =>   6
Atom  59H    basis set group =>   6
Atom  60H    basis set group =>   6
Atom  61H    basis set group =>   6
Atom  62H    basis set group =>   6
Atom  63H    basis set group =>   6
----------------------------------
AUXILIARY/JK BASIS SET INFORMATION
----------------------------------
There are 6 groups of distinct atoms

 Group   1 Type N   : 14s11p10d2f contracted to 14s11p10d2f pattern {11111111111111/11111111111/1111111111/11}
 Group   2 Type C   : 14s11p10d2f contracted to 14s11p10d2f pattern {11111111111111/11111111111/1111111111/11}
 Group   3 Type O   : 14s11p10d2f contracted to 14s11p10d2f pattern {11111111111111/11111111111/1111111111/11}
 Group   4 Type S   : 17s14p13d4f contracted to 17s14p13d4f pattern {11111111111111111/11111111111111/1111111111111/1111}
 Group   5 Type P   : 17s14p13d4f contracted to 17s14p13d4f pattern {11111111111111111/11111111111111/1111111111111/1111}
 Group   6 Type H   : 9s2p1d contracted to 9s2p1d pattern {111111111/11/1}

Atom   0N    basis set group =>   1
Atom   1C    basis set group =>   2
Atom   2C    basis set group =>   2
Atom   3O    basis set group =>   3
Atom   4C    basis set group =>   2
Atom   5S    basis set group =>   4
Atom   6O    basis set group =>   3
Atom   7N    basis set group =>   1
Atom   8C    basis set group =>   2
Atom   9O    basis set group =>   3
Atom  10N    basis set group =>   1
Atom  11C    basis set group =>   2
Atom  12O    basis set group =>   3
Atom  13C    basis set group =>   2
Atom  14N    basis set group =>   1
Atom  15C    basis set group =>   2
Atom  16C    basis set group =>   2
Atom  17C    basis set group =>   2
Atom  18C    basis set group =>   2
Atom  19C    basis set group =>   2
Atom  20C    basis set group =>   2
Atom  21C    basis set group =>   2
Atom  22C    basis set group =>   2
Atom  23N    basis set group =>   1
Atom  24C    basis set group =>   2
Atom  25C    basis set group =>   2
Atom  26C    basis set group =>   2
Atom  27O    basis set group =>   3
Atom  28C    basis set group =>   2
Atom  29O    basis set group =>   3
Atom  30C    basis set group =>   2
Atom  31O    basis set group =>   3
Atom  32C    basis set group =>   2
Atom  33O    basis set group =>   3
Atom  34P    basis set group =>   5
Atom  35O    basis set group =>   3
Atom  36O    basis set group =>   3
Atom  37O    basis set group =>   3
Atom  38H    basis set group =>   6
Atom  39H    basis set group =>   6
Atom  40H    basis set group =>   6
Atom  41H    basis set group =>   6
Atom  42H    basis set group =>   6
Atom  43H    basis set group =>   6
Atom  44H    basis set group =>   6
Atom  45H    basis set group =>   6
Atom  46H    basis set group =>   6
Atom  47H    basis set group =>   6
Atom  48H    basis set group =>   6
Atom  49H    basis set group =>   6
Atom  50H    basis set group =>   6
Atom  51H    basis set group =>   6
Atom  52H    basis set group =>   6
Atom  53H    basis set group =>   6
Atom  54H    basis set group =>   6
Atom  55H    basis set group =>   6
Atom  56H    basis set group =>   6
Atom  57H    basis set group =>   6
Atom  58H    basis set group =>   6
Atom  59H    basis set group =>   6
Atom  60H    basis set group =>   6
Atom  61H    basis set group =>   6
Atom  62H    basis set group =>   6
Atom  63H    basis set group =>   6
---------------------------------
AUXILIARY/X BASIS SET INFORMATION
---------------------------------
There are 6 groups of distinct atoms

 Group   1 Type N   : 14s11p10d2f contracted to 14s11p10d2f pattern {11111111111111/11111111111/1111111111/11}
 Group   2 Type C   : 14s11p10d2f contracted to 14s11p10d2f pattern {11111111111111/11111111111/1111111111/11}
 Group   3 Type O   : 14s11p10d2f contracted to 14s11p10d2f pattern {11111111111111/11111111111/1111111111/11}
 Group   4 Type S   : 17s14p13d4f contracted to 17s14p13d4f pattern {11111111111111111/11111111111111/1111111111111/1111}
 Group   5 Type P   : 17s14p13d4f contracted to 17s14p13d4f pattern {11111111111111111/11111111111111/1111111111111/1111}
 Group   6 Type H   : 9s2p1d contracted to 9s2p1d pattern {111111111/11/1}

Atom   0N    basis set group =>   1
Atom   1C    basis set group =>   2
Atom   2C    basis set group =>   2
Atom   3O    basis set group =>   3
Atom   4C    basis set group =>   2
Atom   5S    basis set group =>   4
Atom   6O    basis set group =>   3
Atom   7N    basis set group =>   1
Atom   8C    basis set group =>   2
Atom   9O    basis set group =>   3
Atom  10N    basis set group =>   1
Atom  11C    basis set group =>   2
Atom  12O    basis set group =>   3
Atom  13C    basis set group =>   2
Atom  14N    basis set group =>   1
Atom  15C    basis set group =>   2
Atom  16C    basis set group =>   2
Atom  17C    basis set group =>   2
Atom  18C    basis set group =>   2
Atom  19C    basis set group =>   2
Atom  20C    basis set group =>   2
Atom  21C    basis set group =>   2
Atom  22C    basis set group =>   2
Atom  23N    basis set group =>   1
Atom  24C    basis set group =>   2
Atom  25C    basis set group =>   2
Atom  26C    basis set group =>   2
Atom  27O    basis set group =>   3
Atom  28C    basis set group =>   2
Atom  29O    basis set group =>   3
Atom  30C    basis set group =>   2
Atom  31O    basis set group =>   3
Atom  32C    basis set group =>   2
Atom  33O    basis set group =>   3
Atom  34P    basis set group =>   5
Atom  35O    basis set group =>   3
Atom  36O    basis set group =>   3
Atom  37O    basis set group =>   3
Atom  38H    basis set group =>   6
Atom  39H    basis set group =>   6
Atom  40H    basis set group =>   6
Atom  41H    basis set group =>   6
Atom  42H    basis set group =>   6
Atom  43H    basis set group =>   6
Atom  44H    basis set group =>   6
Atom  45H    basis set group =>   6
Atom  46H    basis set group =>   6
Atom  47H    basis set group =>   6
Atom  48H    basis set group =>   6
Atom  49H    basis set group =>   6
Atom  50H    basis set group =>   6
Atom  51H    basis set group =>   6
Atom  52H    basis set group =>   6
Atom  53H    basis set group =>   6
Atom  54H    basis set group =>   6
Atom  55H    basis set group =>   6
Atom  56H    basis set group =>   6
Atom  57H    basis set group =>   6
Atom  58H    basis set group =>   6
Atom  59H    basis set group =>   6
Atom  60H    basis set group =>   6
Atom  61H    basis set group =>   6
Atom  62H    basis set group =>   6
Atom  63H    basis set group =>   6

Checking for AutoStart:
The File: FMN_s0.gbw exists
Trying to determine its content:
     ... Fine, the file contains calculation information
     ... Fine, the calculation information was read
     ... Fine, the file contains a basis set
     ... Fine, the basis set was read
     ... Fine, the file contains a geometry
     ... Fine, the geometry was read
     ... Fine, the file contains a set of orbitals
     ... Fine, the orbitals can be read
     => possible old guess file was deleted
     => GBW file was renamed to GES file
     => GES file is set as startup file
     => Guess is set to MORead
     ... now leaving AutoStart



           ************************************************************
           *        Program running with 64 parallel MPI-processes    *
           *              working on a common directory               *
           ************************************************************
------------------------------------------------------------------------------
                             ORCA STARTUP CALCULATIONS
------------------------------------------------------------------------------
------------------------------------------------------------------------------
                   ___                                                        
                  /   \      - P O W E R E D   B Y -                         
                 /     \                                                     
                 |  |  |   _    _      __       _____    __    __             
                 |  |  |  | |  | |    /  \     |  _  \  |  |  /  |          
                  \  \/   | |  | |   /    \    | | | |  |  | /  /          
                 / \  \   | |__| |  /  /\  \   | |_| |  |  |/  /          
                |  |  |   |  __  | /  /__\  \  |    /   |      \           
                |  |  |   | |  | | |   __   |  |    \   |  |\   \          
                \     /   | |  | | |  |  |  |  | |\  \  |  | \   \       
                 \___/    |_|  |_| |__|  |__|  |_| \__\ |__|  \__/        
                                                                              
                      - O R C A' S   B I G   F R I E N D -                    
                                      &                                       
                       - I N T E G R A L  F E E D E R -                       
                                                                              
 v1 FN, 2020, v2 2021, v3 2022-2024                                           
------------------------------------------------------------------------------


----------------------
SHARK INTEGRAL PACKAGE
----------------------

Number of atoms                             ...     64
Number of basis functions                   ...    670
Number of shells                            ...    310
Maximum angular momentum                    ...      2
Integral batch strategy                     ... SHARK/LIBINT Hybrid
RI-J (if used) integral strategy            ... SPLIT-RIJ (Revised 2003 algorithm where possible)
Printlevel                                  ...      1
Contraction scheme used                     ... SEGMENTED contraction
Prescreening option                         ... SCHWARTZ
   Thresh                                   ... 2.500e-11
   Tcut                                     ... 2.500e-12
   Tpresel                                  ... 2.500e-12 
Coulomb Range Separation                    ... NOT USED
Exchange Range Separation                   ... NOT USED
Multipole approximations                    ... NOT USED
Finite Nucleus Model                        ... NOT USED
CABS basis                                  ... NOT available
Auxiliary Coulomb fitting basis             ... AVAILABLE
   # of basis functions in Aux-J            ...   4820
   # of shells in Aux-J                     ...   1740
   Maximum angular momentum in Aux-J        ...      3
Auxiliary J/K fitting basis                 ... AVAILABLE
   # of basis functions in Aux-JK           ...   4820
   # of shells in Aux-JK                    ...   1740
   Maximum angular momentum in Aux-JK       ...      3
Auxiliary Correlation fitting basis         ... AVAILABLE
   # of basis functions in Aux-C            ...   4820
   # of shells in Aux-C                     ...   1740
   Maximum angular momentum in Aux-C        ...      3
Auxiliary 'external' fitting basis          ... NOT available

Checking pre-screening integrals            ... done (  0.0 sec) Dimension = 310
Check shell pair data                       ... done (  0.0 sec)
Shell pair information
Shell pair cut-off parameter TPreSel        ...   2.5e-12
Total number of shell pairs                 ...     48205
Shell pairs after pre-screening             ...     28727
Total number of primitive shell pairs       ...    179693
Primitive shell pairs kept                  ...     63109
          la=0 lb=0:   8906 shell pairs
          la=1 lb=0:  10834 shell pairs
          la=1 lb=1:   3367 shell pairs
          la=2 lb=0:   3326 shell pairs
          la=2 lb=1:   2008 shell pairs
          la=2 lb=2:    286 shell pairs

Calculating one electron integrals          ... done (  0.1 sec)
Calculating RI/J V-Matrix + Cholesky decomp.... done (  1.3 sec)
Calculating RI/JK V-Matrix + Cholesky decomp... done (  1.3 sec)
Calculating RI/C V-Matrix + Cholesky decomp.... done (  1.2 sec)
Calculating Nuclear repulsion               ... done (  0.0 sec) ENN=   5096.041510520077 Eh

Diagonalization of the overlap matrix:
Smallest eigenvalue                        ... 1.808e-04
Time for diagonalization                   ...    0.069 sec
Threshold for overlap eigenvalues          ... 1.000e-07
Number of eigenvalues below threshold      ... 0
Time for construction of square roots      ...    0.051 sec
Total time needed                          ...    0.129 sec

-------------------
DFT GRID GENERATION
-------------------

General Integration Accuracy     IntAcc      ... 4.388
Radial Grid Type                 RadialGrid  ... OptM3 with GC (2021)
Angular Grid (max. ang.)         AngularGrid ... 4 (Lebedev-302)
Angular grid pruning method      GridPruning ... 4 (adaptive)
Weight generation scheme         WeightScheme... mBecke (2022)
Basis function cutoff            BFCut       ... 1.0000e-11
Integration weight cutoff        WCut        ... 1.0000e-14
Partially contracted basis set               ... off
Rotationally invariant grid construction     ... off
Angular grids for H and He will be reduced by one unit

Total number of grid points                  ...   311122
Total number of batches                      ...     4891
Average number of points per batch           ...       63
Average number of grid points per atom       ...     4861
Initializing property integral containers    ... done (  0.0 sec)

SHARK setup successfully completed in   5.9 seconds

Maximum memory used throughout the entire STARTUP-calculation: 92.7 MB


           ************************************************************
           *        Program running with 64 parallel MPI-processes    *
           *              working on a common directory               *
           ************************************************************
-------------------------------------------------------------------------------
                                 ORCA GUESS
                   Start orbitals & Density for SCF / CASSCF
-------------------------------------------------------------------------------

------------
SCF SETTINGS
------------
Hamiltonian:
 Ab initio Hamiltonian  Method          .... Hartree-Fock(GTOs)


General Settings:
 Integral files         IntName         .... FMN_s0
 Hartree-Fock type      HFTyp           .... CASSCF
 Total Charge           Charge          ....   -2
 Multiplicity           Mult            ....    3
 Number of Electrons    NEL             ....  302
 Basis Dimension        Dim             ....  670
 Nuclear Repulsion      ENuc            ....   5096.0415105201 Eh

---------------------
INITIAL GUESS: MOREAD
---------------------
Guess MOs are being read from file: FMN_s0.ges
Input geometry compatible with but different from current geometry
Input basis set matches current basis set (good)
Occupation numbers will be reassigned to an Aufbau configuration
MOs were renormalized
Gram-Schmidt orthogonalization of all MOs with pivot on actives
                      ------------------
                      INITIAL GUESS DONE (   1.6 sec)
                      ------------------
             **** ENERGY FILE WAS UPDATED (FMN_s0.en.tmp) ****
Finished Guess after   2.3 sec
Maximum memory used throughout the entire GUESS-calculation: 53.7 MB


           ************************************************************
           *        Program running with 64 parallel MPI-processes    *
           *              working on a common directory               *
           ************************************************************
-------------------------------------------------------------------------------
                              ORCA-CASSCF
-------------------------------------------------------------------------------

Building the CAS space              ... done (121 configurations for Mult=3)

SYSTEM-SPECIFIC SETTINGS:
Number of active electrons          ...    6
Number of active orbitals           ...    6
Total number of electrons           ...  302
Total number of orbitals            ...  670

Determined orbital ranges:
   Internal       0 -  147 ( 148 orbitals)
   Active       148 -  153 (   6 orbitals)
   External     154 -  669 ( 516 orbitals)
Number of rotation parameters      ...  80352

CI-STEP:
CI strategy                         ... General CI
Number of multiplicity blocks       ...    1
BLOCK  0 WEIGHT=   1.0000
  Multiplicity                      ...    3
  #(Configurations)                 ...  121
  #(CSFs)                           ...  189
  #(Roots)                          ...    6
    ROOT=0 WEIGHT=    0.166667
    ROOT=1 WEIGHT=    0.166667
    ROOT=2 WEIGHT=    0.166667
    ROOT=3 WEIGHT=    0.166667
    ROOT=4 WEIGHT=    0.166667
    ROOT=5 WEIGHT=    0.166667

  PrintLevel                        ...    1
  N(GuessMat)                       ...      2048
  MaxDim(CI)                        ...        10
  MaxIter(CI)                       ...        64
  Energy Tolerance CI               ...  2.50e-09
  Residual Tolerance CI             ...  2.50e-09
  Shift(CI)                         ...  1.00e-04

INTEGRAL-TRANSFORMATION-STEP:
  Algorithm                         ... EXACT

ORBITAL-IMPROVEMENT-STEP:
  Algorithm                         ... SuperCI(PT)
  Default Parametrization           ... CAYLEY
  Act-Act rotations                 ... depends on algorithm used

  Note: SuperCI(PT) will ignore FreezeIE, FreezeAct and FreezeGrad. In general Default settings are encouraged.
        In conjunction with ShiftUp, ShiftDn or GradScaling the performance of SuperCI(PT) is less optimal.  

  MaxRot                            ... 2.00e-01 
  Max. no of vectors (DIIS)         ... 15
  DThresh (cut-off) metric          ... 1.00e-06
  Switch step at gradient           ...  3.00e-02 
  Switch step at iteration          ...        50   
  Switch step to                    ... SuperCI(PT)    

SCF-SETTINGS:
  Incremental                       ... on
  RIJCOSX approximation             ... off
  RI-JK approximation               ... off
  AO integral handling              ... DIRECT
  Integral Neglect Thresh           ...  2.50e-11
  Primitive cutoff TCut             ...  2.50e-12
  Energy convergence tolerance      ...  2.50e-08
  Orbital gradient convergence      ...  2.50e-04
  Max. number of iterations         ...      1000  


FINAL ORBITALS:
  Active   Orbitals                 ... natural 
  Internal Orbitals                 ... canonical 
  External Orbitals                 ... canonical 
--------------------
CPCM SOLVATION MODEL
--------------------
CPCM parameters:
  Epsilon                                         ...      80.1510
  Refrac                                          ...       1.3328
  Rsolv                                           ...       1.3000
  Surface type                                    ... GAUSSIAN VDW
  Discretization scheme                           ... Constant charge density
    Threshold for H atoms                         ...       5.0000 (charges/Ang^2)
    Threshold for non-H atoms                     ...       5.0000 (charges/Ang^2)
  Epsilon function type                           ...         CPCM
Solvent:                                          ... WATER
Radii:
  Scheme                                          ... Element-dependent radii
  Radius for N  used is    3.5149 Bohr (=   1.8600 Ang.)
  Radius for C  used is    3.8550 Bohr (=   2.0400 Ang.)
  Radius for O  used is    3.4469 Bohr (=   1.8240 Ang.)
  Radius for S  used is    4.0818 Bohr (=   2.1600 Ang.)
  Radius for P  used is    4.0818 Bohr (=   2.1600 Ang.)
  Radius for H  used is    2.4944 Bohr (=   1.3200 Ang.)
Calculating surface                               ...        done! (  0.0s)
Cavity surface points                             ...         5297
Cavity Volume                                     ...    4095.3946
Cavity Surface-area                               ...    2050.2174
Calculating surface distance matrix               ...        done! (  0.2s)
Performing Cholesky decomposition & store         ...        done! (  0.7s)
Overall time for CPCM initialization              ...                 0.9s


------------------
CAS-SCF ITERATIONS
------------------


MACRO-ITERATION   1: 
   --- CPCM  contribution = -0.580796182 
   --- Inactive Energy E0 = -2625.27577508 Eh
CI-ITERATION   0: 
 -2630.404827800   0.000000000003 (    0.01)
 -2630.392575950   0.000000000003
 -2630.349098503   0.000000000003
 -2630.287245311   0.000000000004
 -2630.285539509   0.000000000004
 -2630.274871544   0.000000000003
   CI-PROBLEM SOLVED
   DENSITIES MADE

                 <<<<<<<<<<<<<<<<<<INITIAL CI STATE CHECK>>>>>>>>>>>>>>>>>>

BLOCK  0 MULT= 3 NROOTS= 6 
ROOT   0:  E=   -2630.4048277995 Eh
      0.92972 [     0]: 221100
      0.01899 [    38]: 121200
      0.01864 [     6]: 212100
      0.00869 [    40]: 121101
      0.00731 [    91]: 021120
      0.00667 [    42]: 121011
ROOT   1:  E=   -2630.3925759495 Eh  0.333 eV   2689.0 cm**-1
      0.92502 [     6]: 212100
      0.02039 [    51]: 112200
      0.01922 [     0]: 221100
      0.00867 [    53]: 112101
      0.00732 [   101]: 012120
      0.00664 [    55]: 112011
      0.00360 [    35]: 122100
ROOT   2:  E=   -2630.3490985034 Eh  1.516 eV  12231.2 cm**-1
      0.98216 [    35]: 122100
      0.00822 [    37]: 122001
      0.00394 [     6]: 212100
      0.00320 [    87]: 022101
ROOT   3:  E=   -2630.2872453112 Eh  3.200 eV  25806.4 cm**-1
      0.86642 [     1]: 221010
      0.04549 [    89]: 021210
      0.02688 [    40]: 121101
      0.02082 [     7]: 212010
      0.01860 [    39]: 121110
      0.00737 [    42]: 121011
      0.00414 [    92]: 021111
ROOT   4:  E=   -2630.2855395086 Eh  3.246 eV  26180.8 cm**-1
      0.88989 [    38]: 121200
      0.04048 [     2]: 221001
      0.02047 [     0]: 221100
      0.01406 [    51]: 112200
      0.00877 [    43]: 121002
      0.00693 [    40]: 121101
      0.00630 [    92]: 021111
      0.00551 [    41]: 121020
ROOT   5:  E=   -2630.2748715438 Eh  3.536 eV  28522.1 cm**-1
      0.86035 [     7]: 212010
      0.04600 [    99]: 012210
      0.02647 [    53]: 112101
      0.02110 [     1]: 221010
      0.01874 [    52]: 112110
      0.00739 [    55]: 112011
      0.00620 [    51]: 112200
      0.00359 [   102]: 012111

                 <<<<<<<<<<<<<<<<<<INITIAL CI STATE CHECK>>>>>>>>>>>>>>>>>>

   E(CAS)= -2605.001059081 Eh DE=    0.000000e+00
   --- Energy gap subspaces: Ext-Act = -0.100   Act-Int = -0.086
   N(occ)=  1.59901 1.66327 1.50231 0.86201 0.33605 0.03735
   ||g|| =     1.140727e+00 Max(G)=    8.283477e-02 Rot=149,28
   --- Orbital Update [SuperCI(PT)]
   --- Canonicalize Internal Space
   --- Canonicalize External Space
   --- SX_PT (Skipped TA=0 IT=0): ||X|| =      0.210354250 Max(X)(149,63) =     -0.044851873 
   --- SFit(Active Orbitals)

MACRO-ITERATION   2: 
   --- CPCM  contribution = -0.497436767 
   --- Inactive Energy E0 = -2626.95538932 Eh
CI-ITERATION   0: 
 -2631.884109580   0.000000000007 (    0.01)
 -2631.875875554   0.000000000003
 -2631.765735139   0.000000000003
 -2631.764391363   0.000000000005
 -2631.757563391   0.000000000004
 -2631.755605513   0.000000000002
   CI-PROBLEM SOLVED
   DENSITIES MADE
   E(CAS)= -2605.171602769 Eh DE=   -1.705437e-01
   --- Energy gap subspaces: Ext-Act = -0.106   Act-Int = 0.028
   N(occ)=  1.60873 1.49962 1.49984 1.00448 0.34023 0.04710
   ||g|| =     3.454518e-01 Max(G)=    2.162619e-02 Rot=263,126
   --- Orbital Update [SuperCI(PT)]
   --- Canonicalize Internal Space
   --- Canonicalize External Space
   --- SX_PT (Skipped TA=0 IT=0): ||X|| =      0.085811288 Max(X)(149,124) =     -0.033359471 
   --- SFit(Active Orbitals)

MACRO-ITERATION   3: 
   --- CPCM  contribution = -0.493427421 
   --- Inactive Energy E0 = -2627.48097459 Eh
CI-ITERATION   0: 
 -2632.364244093   0.000000000005 (    0.01)
 -2632.357454138   0.000000000003
 -2632.246933495   0.000000000006
 -2632.245086087   0.000000000004
 -2632.239645434   0.000000000004
 -2632.238423407   0.000000000004
   CI-PROBLEM SOLVED
   DENSITIES MADE
   E(CAS)= -2605.188581068 Eh DE=   -1.697830e-02
   --- Energy gap subspaces: Ext-Act = -0.102   Act-Int = 0.058
   N(occ)=  1.60889 1.49956 1.49983 1.00449 0.34001 0.04723
   ||g|| =     1.250484e-01 Max(G)=    1.230697e-02 Rot=149,126
   --- Orbital Update [SuperCI(PT)]
   --- Canonicalize Internal Space
   --- Canonicalize External Space
   --- SX_PT (Skipped TA=0 IT=0): ||X|| =      0.043432308 Max(X)(149,126) =     -0.022579167 
   --- SFit(Active Orbitals)

MACRO-ITERATION   4: 
   --- CPCM  contribution = -0.493837491 
   --- Inactive Energy E0 = -2627.68826275 Eh
CI-ITERATION   0: 
 -2632.580595701   0.000000000003 (    0.01)
 -2632.573994695   0.000000000003
 -2632.463179419   0.000000000005
 -2632.461523226   0.000000000003
 -2632.456082278   0.000000000004
 -2632.455069380   0.000000000005
   CI-PROBLEM SOLVED
   DENSITIES MADE
   E(CAS)= -2605.191000964 Eh DE=   -2.419896e-03
   --- Energy gap subspaces: Ext-Act = -0.103   Act-Int = 0.059
   N(occ)=  1.60910 1.49956 1.49982 1.00418 0.34002 0.04732
   ||g|| =     6.014477e-02 Max(G)=    7.956331e-03 Rot=149,126
   --- Orbital Update [SuperCI(PT)]
   --- Canonicalize Internal Space
   --- Canonicalize External Space
   --- SX_PT (Skipped TA=0 IT=0): ||X|| =      0.022402789 Max(X)(149,126) =      0.015393347 
   --- SFit(Active Orbitals)

MACRO-ITERATION   5: 
   --- CPCM  contribution = -0.494426941 
   --- Inactive Energy E0 = -2627.71355090 Eh
CI-ITERATION   0: 
 -2632.610951541   0.000000000002 (    0.01)
 -2632.604473735   0.000000000002
 -2632.493890211   0.000000000003
 -2632.491676764   0.000000000003
 -2632.486913118   0.000000000003
 -2632.485360659   0.000000000003
   CI-PROBLEM SOLVED
   DENSITIES MADE
   E(CAS)= -2605.191439290 Eh DE=   -4.383257e-04
   --- Energy gap subspaces: Ext-Act = -0.102   Act-Int = 0.059
   N(occ)=  1.60916 1.49955 1.49982 1.00425 0.33992 0.04730
   ||g|| =     3.452034e-02 Max(G)=    4.721482e-03 Rot=149,126
   --- Orbital Update [SuperCI(PT)]
   --- Canonicalize Internal Space
   --- Canonicalize External Space
   --- SX_PT (Skipped TA=0 IT=0): ||X|| =      0.012881059 Max(X)(149,126) =      0.009063542 
   --- SFit(Active Orbitals)

MACRO-ITERATION   6: 
   --- CPCM  contribution = -0.494224050 
   --- Inactive Energy E0 = -2627.71336039 Eh
CI-ITERATION   0: 
 -2632.610017916   0.000000000002 (    0.02)
 -2632.603550522   0.000000000004
 -2632.492963530   0.000000000003
 -2632.490753763   0.000000000002
 -2632.485997832   0.000000000005
 -2632.484449815   0.000000000004
   CI-PROBLEM SOLVED
   DENSITIES MADE
   E(CAS)= -2605.191566632 Eh DE=   -1.273428e-04
   --- Energy gap subspaces: Ext-Act = -0.102   Act-Int = 0.059
   N(occ)=  1.60930 1.49955 1.49982 1.00408 0.33991 0.04734
   ||g|| =     1.479707e-02 Max(G)=    2.754971e-03 Rot=149,126
   --- Orbital Update [SuperCI(PT)]
   --- Canonicalize Internal Space
   --- Canonicalize External Space
   --- SX_PT (Skipped TA=0 IT=0): ||X|| =      0.007432234 Max(X)(149,126) =      0.005276047 
   --- SFit(Active Orbitals)

MACRO-ITERATION   7: 
   --- CPCM  contribution = -0.494258616 
   --- Inactive Energy E0 = -2627.70614569 Eh
CI-ITERATION   0: 
 -2632.603110288   0.000000000003 (    0.01)
 -2632.596667982   0.000000000003
 -2632.486082119   0.000000000003
 -2632.483815124   0.000000000005
 -2632.479129463   0.000000000003
 -2632.477542469   0.000000000003
   CI-PROBLEM SOLVED
   DENSITIES MADE
   E(CAS)= -2605.191612294 Eh DE=   -4.566146e-05
   --- Energy gap subspaces: Ext-Act = -0.102   Act-Int = 0.059
   N(occ)=  1.60940 1.49955 1.49982 1.00395 0.33987 0.04740
   ||g|| =     6.736249e-03 Max(G)=    8.368063e-04 Rot=149,126
   --- Orbital Update [SuperCI(PT)]
   --- Canonicalize Internal Space
   --- Canonicalize External Space
   --- SX_PT (Skipped TA=0 IT=0): ||X|| =      0.003169288 Max(X)(149,126) =      0.001599238 
   --- SFit(Active Orbitals)

MACRO-ITERATION   8: 
   --- CPCM  contribution = -0.494350641 
   --- Inactive Energy E0 = -2627.70290925 Eh
CI-ITERATION   0: 
 -2632.599952566   0.000000000004 (    0.01)
 -2632.593507780   0.000000000002
 -2632.482970294   0.000000000005
 -2632.480644270   0.000000000005
 -2632.476010905   0.000000000002
 -2632.474369964   0.000000000003
   CI-PROBLEM SOLVED
   DENSITIES MADE
   E(CAS)= -2605.191621753 Eh DE=   -9.459239e-06
   --- Energy gap subspaces: Ext-Act = -0.102   Act-Int = 0.059
   N(occ)=  1.60949 1.49955 1.49982 1.00384 0.33985 0.04744
   ||g|| =     3.955829e-03 Max(G)=   -4.537511e-04 Rot=167,126
   --- Orbital Update [SuperCI(PT)]
   --- Canonicalize Internal Space
   --- Canonicalize External Space
   --- SX_PT (Skipped TA=0 IT=0): ||X|| =      0.001780227 Max(X)(154,153) =     -0.000937549 
   --- SFit(Active Orbitals)

MACRO-ITERATION   9: 
   --- CPCM  contribution = -0.494429979 
   --- Inactive Energy E0 = -2627.70510787 Eh
CI-ITERATION   0: 
 -2632.601748032   0.000000000005 (    0.01)
 -2632.595306200   0.000000000003
 -2632.484762826   0.000000000005
 -2632.482443636   0.000000000004
 -2632.477803179   0.000000000005
 -2632.476173575   0.000000000005
   CI-PROBLEM SOLVED
   DENSITIES MADE
   E(CAS)= -2605.191624474 Eh DE=   -2.721228e-06
   --- Energy gap subspaces: Ext-Act = -0.102   Act-Int = 0.059
   N(occ)=  1.60953 1.49955 1.49982 1.00378 0.33985 0.04747
   ||g|| =     1.457469e-03 Max(G)=   -2.071040e-04 Rot=222,149
   --- Orbital Update [SuperCI(PT)]
   --- Canonicalize Internal Space
   --- Canonicalize External Space
   --- SX_PT (Skipped TA=0 IT=0): ||X|| =      0.001174008 Max(X)(154,153) =     -0.000671577 
   --- SFit(Active Orbitals)

MACRO-ITERATION  10: 
   --- CPCM  contribution = -0.494504408 
   --- Inactive Energy E0 = -2627.70719364 Eh
CI-ITERATION   0: 
 -2632.603677432   0.000000000002 (    0.01)
 -2632.597233495   0.000000000004
 -2632.486702036   0.000000000002
 -2632.484365207   0.000000000006
 -2632.479738152   0.000000000004
 -2632.478094073   0.000000000004
   CI-PROBLEM SOLVED
   DENSITIES MADE
   E(CAS)= -2605.191625184 Eh DE=   -7.098283e-07
   --- Energy gap subspaces: Ext-Act = -0.102   Act-Int = 0.059
   N(occ)=  1.60955 1.49955 1.49982 1.00375 0.33984 0.04748
   ||g|| =     9.303496e-04 Max(G)=   -9.803336e-05 Rot=148,147
   --- Orbital Update [SuperCI(PT)]
   --- Canonicalize Internal Space
   --- Canonicalize External Space
   --- SX_PT (Skipped TA=0 IT=0): ||X|| =      0.000849980 Max(X)(154,153) =     -0.000512785 
   --- SFit(Active Orbitals)

MACRO-ITERATION  11: 
   --- CPCM  contribution = -0.494531068 
   --- Inactive Energy E0 = -2627.70854692 Eh
CI-ITERATION   0: 
 -2632.604934962   0.000000000002 (    0.01)
 -2632.598491563   0.000000000003
 -2632.487957497   0.000000000003
 -2632.485618752   0.000000000004
 -2632.480992485   0.000000000006
 -2632.479348885   0.000000000003
   CI-PROBLEM SOLVED
   DENSITIES MADE
   E(CAS)= -2605.191625460 Eh DE=   -2.761794e-07
   --- Energy gap subspaces: Ext-Act = -0.102   Act-Int = 0.059
   N(occ)=  1.60959 1.49955 1.49982 1.00370 0.33984 0.04750
   ||g|| =     8.328344e-04 Max(G)=    9.589996e-05 Rot=222,149
   --- Orbital Update [SuperCI(PT)]
   --- Canonicalize Internal Space
   --- Canonicalize External Space
   --- SX_PT (Skipped TA=0 IT=0): ||X|| =      0.000465090 Max(X)(154,153) =     -0.000236094 
   --- SFit(Active Orbitals)

MACRO-ITERATION  12: 
   --- CPCM  contribution = -0.494546243 
   --- Inactive Energy E0 = -2627.70958496 Eh
CI-ITERATION   0: 
 -2632.605853390   0.000000000002 (    0.01)
 -2632.599409327   0.000000000002
 -2632.488885754   0.000000000004
 -2632.486528622   0.000000000004
 -2632.481919305   0.000000000003
 -2632.480258807   0.000000000004
   CI-PROBLEM SOLVED
   DENSITIES MADE
   E(CAS)= -2605.191625600 Eh DE=   -1.392896e-07
   --- Energy gap subspaces: Ext-Act = -0.102   Act-Int = 0.059
   N(occ)=  1.60960 1.49955 1.49982 1.00368 0.33983 0.04751
   ||g|| =     5.624116e-04 Max(G)=    6.148749e-05 Rot=167,126
   --- Orbital Update [SuperCI(PT)]
   --- Canonicalize Internal Space
   --- Canonicalize External Space
   --- SX_PT (Skipped TA=0 IT=0): ||X|| =      0.000226627 Max(X)(154,153) =     -0.000091723 
   --- SFit(Active Orbitals)

MACRO-ITERATION  13: 
   --- CPCM  contribution = -0.494548124 
   --- Inactive Energy E0 = -2627.71020188 Eh
CI-ITERATION   0: 
 -2632.606420777   0.000000000003 (    0.01)
 -2632.599976770   0.000000000003
 -2632.489453048   0.000000000003
 -2632.487096787   0.000000000003
 -2632.482487080   0.000000000005
 -2632.480826948   0.000000000005
   CI-PROBLEM SOLVED
   DENSITIES MADE
   E(CAS)= -2605.191625656 Eh DE=   -5.645688e-08
   --- Energy gap subspaces: Ext-Act = -0.102   Act-Int = 0.059
   N(occ)=  1.60961 1.49955 1.49982 1.00366 0.33983 0.04752
   ||g|| =     2.100108e-04 Max(G)=    2.613179e-05 Rot=167,138
                     ---- THE CAS-SCF GRADIENT HAS CONVERGED ----
                            --- FINALIZING ORBITALS ---
                    ---- DOING ONE FINAL ITERATION FOR PRINTING ----
   --- Canonicalize Internal Space
   --- Canonicalize External Space

MACRO-ITERATION  14: 
   --- CPCM  contribution = -0.494553835 
   --- Inactive Energy E0 = -2627.71011315 Eh
   --- All densities will be recomputed
CI-ITERATION   0: 
 -2632.606297094   0.000000000006 (    0.01)
 -2632.599853135   0.000000000006
 -2632.489329243   0.000000000004
 -2632.486974859   0.000000000004
 -2632.482363413   0.000000000005
 -2632.480705016   0.000000000002
   CI-PROBLEM SOLVED
   DENSITIES MADE
   E(CAS)= -2605.191625660 Eh DE=   -4.150934e-09
   --- Energy gap subspaces: Ext-Act = -0.102   Act-Int = 0.059
   N(occ)=  1.61011 1.50004 1.49999 1.00322 0.33921 0.04743
   ||g|| =     2.451664e-04 Max(G)=   -2.706613e-05 Rot=167,138
CPCM Solvation Model Properties:
Surface-charge          :            1.97798561
Corrected charge        :            2.00000000
Outlying charge corr.   :            0.00002117 Eh               0.00058 eV
Free-energy (cav+disp)  :  This term is not implemented in the current solvation scheme

--------------
CASSCF RESULTS
--------------

Final CASSCF energy       : -2605.191625660 Eh  -70890.8682 eV

----------------
ORBITAL ENERGIES
----------------

  NO   OCC          E(Eh)            E(eV) 
   0   2.0000     -91.926605     -2501.4501 
   1   2.0000     -79.972049     -2176.1501 
   2   2.0000     -20.563962      -559.5739 
   3   2.0000     -20.556538      -559.3718 
   4   2.0000     -20.533758      -558.7520 
   5   2.0000     -20.514891      -558.2386 
   6   2.0000     -20.507016      -558.0243 
   7   2.0000     -20.506055      -557.9981 
   8   2.0000     -20.484003      -557.3981 
   9   2.0000     -20.480698      -557.3081 
  10   2.0000     -20.428400      -555.8850 
  11   2.0000     -20.417380      -555.5852 
  12   2.0000     -20.416737      -555.5677 
  13   2.0000     -15.662498      -426.1982 
  14   2.0000     -15.637048      -425.5057 
  15   2.0000     -15.634741      -425.4429 
  16   2.0000     -15.600215      -424.5034 
  17   2.0000     -15.535418      -422.7402 
  18   2.0000     -11.376927      -309.5819 
  19   2.0000     -11.375330      -309.5385 
  20   2.0000     -11.343959      -308.6848 
  21   2.0000     -11.333116      -308.3898 
  22   2.0000     -11.313672      -307.8607 
  23   2.0000     -11.311309      -307.7964 
  24   2.0000     -11.293636      -307.3155 
  25   2.0000     -11.286611      -307.1243 
  26   2.0000     -11.278842      -306.9129 
  27   2.0000     -11.270583      -306.6882 
  28   2.0000     -11.269697      -306.6640 
  29   2.0000     -11.269389      -306.6557 
  30   2.0000     -11.263022      -306.4824 
  31   2.0000     -11.257958      -306.3446 
  32   2.0000     -11.257562      -306.3338 
  33   2.0000     -11.256524      -306.3056 
  34   2.0000     -11.245793      -306.0136 
  35   2.0000     -11.245125      -305.9954 
  36   2.0000     -11.228617      -305.5462 
  37   2.0000     -11.228375      -305.5396 
  38   2.0000      -8.961977      -243.8678 
  39   2.0000      -7.515528      -204.5079 
  40   2.0000      -6.648016      -180.9017 
  41   2.0000      -6.646649      -180.8645 
  42   2.0000      -6.646515      -180.8609 
  43   2.0000      -5.419480      -147.4715 
  44   2.0000      -5.418529      -147.4457 
  45   2.0000      -5.418338      -147.4405 
  46   2.0000      -1.409513       -38.3548 
  47   2.0000      -1.381732       -37.5988 
  48   2.0000      -1.380417       -37.5631 
  49   2.0000      -1.375799       -37.4374 
  50   2.0000      -1.351108       -36.7655 
  51   2.0000      -1.341404       -36.5015 
  52   2.0000      -1.338305       -36.4171 
  53   2.0000      -1.316419       -35.8216 
  54   2.0000      -1.286884       -35.0179 
  55   2.0000      -1.282747       -34.9053 
  56   2.0000      -1.262100       -34.3435 
  57   2.0000      -1.250768       -34.0351 
  58   2.0000      -1.242585       -33.8125 
  59   2.0000      -1.193211       -32.4689 
  60   2.0000      -1.172382       -31.9021 
  61   2.0000      -1.167180       -31.7606 
  62   2.0000      -1.153578       -31.3904 
  63   2.0000      -1.061634       -28.8885 
  64   2.0000      -1.059335       -28.8260 
  65   2.0000      -1.053287       -28.6614 
  66   2.0000      -1.039561       -28.2879 
[...]
178:   3303.99   0.005437   27.48  0.000514  ( 0.020987 -0.006962  0.004960)
179:   3305.22   0.016088   81.30  0.001519  (-0.032642  0.005536 -0.020563)
180:   3318.05   0.002173   10.98  0.000204  (-0.004439  0.013006  0.003937)
181:   3355.42   0.024592  124.28  0.002287  (-0.038016  0.015391 -0.024597)
182:   3369.54   0.007498   37.89  0.000694  ( 0.017039 -0.016271  0.011806)
183:   3426.42   0.031045  156.89  0.002827  (-0.039170  0.024301 -0.026506)
184:   3493.45   0.266710  1347.85  0.023825  ( 0.120472 -0.028046  0.092329)
185:   3496.20   0.254449  1285.88  0.022712  ( 0.009179 -0.120004  0.090700)
186:   3678.66   0.065815  332.60  0.005583  (-0.044395  0.043616 -0.041351)
187:   3747.73   0.081345  411.09  0.006773  ( 0.073232 -0.031004 -0.021193)
188:   3808.40   0.091148  460.62  0.007469  ( 0.065868  0.029534  0.047517)
189:   3827.88   0.090035  455.00  0.007340  (-0.047442  0.069861  0.014444)
190:   4098.54   0.038553  194.83  0.002935  (-0.002606 -0.034138 -0.041991)
191:   4130.12   0.131728  665.70  0.009953  (-0.041490  0.067466 -0.060664)

* The epsilon (eps) is given for a Dirac delta lineshape.
** The dipole moment derivative (T) already includes vibrational overlap.

The first frequency considered to be a vibration is 6
The total number of vibrations considered is 186


--------------------------
THERMOCHEMISTRY AT 298.15K
--------------------------

Temperature         ...   298.15 K
Pressure            ...     1.00 atm
Total Mass          ...   575.49 AMU
Quasi RRHO          ...     True
Cut-Off Frequency   ...     1.00 cm^-1

Throughout the following assumptions are being made:
  (1) The electronic state is orbitally nondegenerate
      but the spin degeneracy is treated
  (2) There are no thermally accessible electronically excited states
  (3) Hindered rotations indicated by low frequency modes are not
      treated as such but are treated as vibrations and this may
      cause some error
  (4) All equations used are the standard statistical mechanics
      equations for an ideal gas
  (5) All vibrations are strictly harmonic

freq.       3.52  E(vib)   ...       0.59 
freq.       5.61  E(vib)   ...       0.58 
freq.      12.11  E(vib)   ...       0.58 
freq.      18.99  E(vib)   ...       0.57 
freq.      24.61  E(vib)   ...       0.56 
freq.      29.31  E(vib)   ...       0.55 
freq.      37.94  E(vib)   ...       0.54 
freq.      40.27  E(vib)   ...       0.54 
freq.      48.80  E(vib)   ...       0.53 
freq.      56.38  E(vib)   ...       0.52 
freq.      60.97  E(vib)   ...       0.51 
freq.      64.96  E(vib)   ...       0.50 
freq.      72.38  E(vib)   ...       0.50 
freq.      76.37  E(vib)   ...       0.49 
freq.      91.42  E(vib)   ...       0.47 
freq.      97.76  E(vib)   ...       0.46 
freq.     116.79  E(vib)   ...       0.44 
freq.     122.97  E(vib)   ...       0.43 
freq.     145.33  E(vib)   ...       0.41 
freq.     160.36  E(vib)   ...       0.39 
freq.     166.10  E(vib)   ...       0.39 
freq.     178.26  E(vib)   ...       0.37 
freq.     180.17  E(vib)   ...       0.37 
freq.     190.87  E(vib)   ...       0.36 
freq.     209.39  E(vib)   ...       0.34 
freq.     216.65  E(vib)   ...       0.34 
freq.     223.44  E(vib)   ...       0.33 
freq.     236.08  E(vib)   ...       0.32 
freq.     244.13  E(vib)   ...       0.31 
freq.     249.03  E(vib)   ...       0.31 
freq.     264.56  E(vib)   ...       0.29 
freq.     295.88  E(vib)   ...       0.27 
freq.     305.81  E(vib)   ...       0.26 
freq.     317.18  E(vib)   ...       0.25 
freq.     323.88  E(vib)   ...       0.25 
freq.     331.57  E(vib)   ...       0.24 
freq.     345.01  E(vib)   ...       0.23 
freq.     354.01  E(vib)   ...       0.22 
freq.     358.28  E(vib)   ...       0.22 
freq.     360.71  E(vib)   ...       0.22 
freq.     370.79  E(vib)   ...       0.21 
freq.     385.10  E(vib)   ...       0.20 
freq.     386.89  E(vib)   ...       0.20 
freq.     402.86  E(vib)   ...       0.19 
freq.     406.25  E(vib)   ...       0.19 
freq.     426.33  E(vib)   ...       0.18 
freq.     436.31  E(vib)   ...       0.17 
freq.     441.50  E(vib)   ...       0.17 
freq.     485.67  E(vib)   ...       0.15 
freq.     488.50  E(vib)   ...       0.15 
freq.     505.71  E(vib)   ...       0.14 
freq.     521.54  E(vib)   ...       0.13 
freq.     525.81  E(vib)   ...       0.13 
freq.     535.84  E(vib)   ...       0.12 
freq.     542.77  E(vib)   ...       0.12 
freq.     547.94  E(vib)   ...       0.12 
freq.     558.85  E(vib)   ...       0.12 
freq.     575.18  E(vib)   ...       0.11 
freq.     581.38  E(vib)   ...       0.11 
freq.     596.45  E(vib)   ...       0.10 
freq.     607.46  E(vib)   ...       0.10 
freq.     614.79  E(vib)   ...       0.10 
freq.     629.80  E(vib)   ...       0.09 
freq.     640.93  E(vib)   ...       0.09 
freq.     650.11  E(vib)   ...       0.08 
freq.     664.16  E(vib)   ...       0.08 
freq.     672.81  E(vib)   ...       0.08 
freq.     691.41  E(vib)   ...       0.07 
freq.     695.85  E(vib)   ...       0.07 
freq.     729.99  E(vib)   ...       0.06 
freq.     736.61  E(vib)   ...       0.06 
freq.     742.40  E(vib)   ...       0.06 
freq.     774.58  E(vib)   ...       0.05 
freq.     794.07  E(vib)   ...       0.05 
freq.     803.95  E(vib)   ...       0.05 
freq.     829.97  E(vib)   ...       0.04 
freq.     843.74  E(vib)   ...       0.04 
freq.     848.44  E(vib)   ...       0.04 
freq.     871.86  E(vib)   ...       0.04 
freq.     886.97  E(vib)   ...       0.04 
freq.     912.11  E(vib)   ...       0.03 
freq.     920.93  E(vib)   ...       0.03 
freq.     924.76  E(vib)   ...       0.03 
freq.     939.53  E(vib)   ...       0.03 
freq.     964.43  E(vib)   ...       0.03 
freq.     966.73  E(vib)   ...       0.03 
freq.     977.68  E(vib)   ...       0.03 
freq.     988.76  E(vib)   ...       0.02 
freq.    1009.94  E(vib)   ...       0.02 
freq.    1036.72  E(vib)   ...       0.02 
freq.    1043.37  E(vib)   ...       0.02 
freq.    1066.87  E(vib)   ...       0.02 
freq.    1081.85  E(vib)   ...       0.02 
freq.    1100.29  E(vib)   ...       0.02 
freq.    1120.42  E(vib)   ...       0.01 
freq.    1134.48  E(vib)   ...       0.01 
freq.    1135.09  E(vib)   ...       0.01 
freq.    1138.25  E(vib)   ...       0.01 
freq.    1155.05  E(vib)   ...       0.01 
freq.    1157.75  E(vib)   ...       0.01 
freq.    1183.16  E(vib)   ...       0.01 
freq.    1187.19  E(vib)   ...       0.01 
freq.    1197.13  E(vib)   ...       0.01 
freq.    1200.80  E(vib)   ...       0.01 
freq.    1217.48  E(vib)   ...       0.01 
freq.    1234.48  E(vib)   ...       0.01 
freq.    1241.31  E(vib)   ...       0.01 
freq.    1245.89  E(vib)   ...       0.01 
freq.    1254.08  E(vib)   ...       0.01 
freq.    1260.07  E(vib)   ...       0.01 
freq.    1288.05  E(vib)   ...       0.01 
freq.    1301.51  E(vib)   ...       0.01 
freq.    1312.25  E(vib)   ...       0.01 
freq.    1316.02  E(vib)   ...       0.01 
freq.    1332.10  E(vib)   ...       0.01 
freq.    1341.28  E(vib)   ...       0.01 
freq.    1350.58  E(vib)   ...       0.01 
freq.    1368.29  E(vib)   ...       0.01 
freq.    1399.74  E(vib)   ...       0.00 
freq.    1406.04  E(vib)   ...       0.00 
freq.    1411.60  E(vib)   ...       0.00 
freq.    1422.92  E(vib)   ...       0.00 
freq.    1434.57  E(vib)   ...       0.00 
freq.    1449.38  E(vib)   ...       0.00 
freq.    1464.31  E(vib)   ...       0.00 
freq.    1469.86  E(vib)   ...       0.00 
freq.    1477.37  E(vib)   ...       0.00 
freq.    1503.29  E(vib)   ...       0.00 
freq.    1508.16  E(vib)   ...       0.00 
freq.    1516.71  E(vib)   ...       0.00 
freq.    1520.19  E(vib)   ...       0.00 
freq.    1521.95  E(vib)   ...       0.00 
freq.    1524.68  E(vib)   ...       0.00 
freq.    1532.82  E(vib)   ...       0.00 
freq.    1543.76  E(vib)   ...       0.00 
freq.    1547.79  E(vib)   ...       0.00 
freq.    1555.27  E(vib)   ...       0.00 
freq.    1557.58  E(vib)   ...       0.00 
freq.    1563.51  E(vib)   ...       0.00 
freq.    1566.02  E(vib)   ...       0.00 
freq.    1568.36  E(vib)   ...       0.00 
freq.    1572.54  E(vib)   ...       0.00 
freq.    1575.41  E(vib)   ...       0.00 
freq.    1579.15  E(vib)   ...       0.00 
freq.    1584.54  E(vib)   ...       0.00 
freq.    1599.31  E(vib)   ...       0.00 
freq.    1601.28  E(vib)   ...       0.00 
freq.    1611.18  E(vib)   ...       0.00 
freq.    1620.91  E(vib)   ...       0.00 
freq.    1637.09  E(vib)   ...       0.00 
freq.    1652.31  E(vib)   ...       0.00 
freq.    1671.78  E(vib)   ...       0.00 
freq.    1713.04  E(vib)   ...       0.00 
freq.    1728.22  E(vib)   ...       0.00 
freq.    1732.03  E(vib)   ...       0.00 
freq.    1780.87  E(vib)   ...       0.00 
freq.    1791.15  E(vib)   ...       0.00 
freq.    1865.14  E(vib)   ...       0.00 
freq.    1868.95  E(vib)   ...       0.00 
freq.    1903.52  E(vib)   ...       0.00 
freq.    3172.94  E(vib)   ...       0.00 
freq.    3176.37  E(vib)   ...       0.00 
freq.    3181.35  E(vib)   ...       0.00 
freq.    3194.26  E(vib)   ...       0.00 
freq.    3227.65  E(vib)   ...       0.00 
freq.    3241.25  E(vib)   ...       0.00 
freq.    3248.37  E(vib)   ...       0.00 
freq.    3254.48  E(vib)   ...       0.00 
freq.    3262.91  E(vib)   ...       0.00 
freq.    3268.71  E(vib)   ...       0.00 
freq.    3288.94  E(vib)   ...       0.00 
freq.    3290.58  E(vib)   ...       0.00 
freq.    3303.99  E(vib)   ...       0.00 
freq.    3305.22  E(vib)   ...       0.00 
freq.    3318.05  E(vib)   ...       0.00 
freq.    3355.42  E(vib)   ...       0.00 
freq.    3369.54  E(vib)   ...       0.00 
freq.    3426.42  E(vib)   ...       0.00 
freq.    3493.45  E(vib)   ...       0.00 
freq.    3496.20  E(vib)   ...       0.00 
freq.    3678.66  E(vib)   ...       0.00 
freq.    3747.73  E(vib)   ...       0.00 
freq.    3808.40  E(vib)   ...       0.00 
freq.    3827.88  E(vib)   ...       0.00 
freq.    4098.54  E(vib)   ...       0.00 
freq.    4130.12  E(vib)   ...       0.00 

------------
INNER ENERGY
------------

The inner energy is: U= E(el) + E(ZPE) + E(vib) + E(rot) + E(trans)
    E(el)   - is the total energy from the electronic structure calculation
              = E(kin-el) + E(nuc-el) + E(el-el) + E(nuc-nuc)
    E(ZPE)  - the the zero temperature vibrational energy from the frequency calculation
    E(vib)  - the the finite temperature correction to E(ZPE) due to population
              of excited vibrational states
    E(rot)  - is the rotational thermal energy
    E(trans)- is the translational thermal energy

Summary of contributions to the inner energy U:
Electronic energy                ...  -2605.19162567 Eh
Zero point energy                ...      0.52493041 Eh     329.40 kcal/mol
Thermal vibrational correction   ...      0.03348952 Eh      21.01 kcal/mol
Thermal rotational correction    ...      0.00141627 Eh       0.89 kcal/mol
Thermal translational correction ...      0.00141627 Eh       0.89 kcal/mol
-----------------------------------------------------------------------
Total thermal energy                  -2604.63037320 Eh


Summary of corrections to the electronic energy:
(perhaps to be used in another calculation)
Total thermal correction                  0.03632206 Eh      22.79 kcal/mol
Non-thermal (ZPE) correction              0.52493041 Eh     329.40 kcal/mol
-----------------------------------------------------------------------
Total correction                          0.56125247 Eh     352.19 kcal/mol


--------
ENTHALPY
--------

The enthalpy is H = U + kB*T
                kB is Boltzmann's constant
Total thermal energy              ...  -2604.63037320 Eh 
Thermal Enthalpy correction       ...      0.00094421 Eh       0.59 kcal/mol
-----------------------------------------------------------------------
Total Enthalpy                    ...  -2604.62942899 Eh


Note: Only C1 symmetry has been detected, increase convergence thresholds 
      if your molecule has a higher symmetry. Symmetry factor of 1.0 is   
      used for the rotational entropy correction. 
 

Note: Rotational entropy computed according to Herzberg 
Infrared and Raman Spectra, Chapter V,1, Van Nostrand Reinhold, 1945 
Point Group:  C1, Symmetry Number:   1  
Rotational constants in cm-1:     0.003968     0.001886     0.001704 

Vibrational entropy computed according to the QRRHO of S. Grimme
Chem.Eur.J. 2012 18 9955 using a reference frequency of 100.0 cm-1


-------
ENTROPY
-------

The entropy contributions are T*S = T*(S(el)+S(vib)+S(rot)+S(trans))
     S(el)   - electronic entropy
     S(vib)  - vibrational entropy
     S(rot)  - rotational entropy
     S(trans)- translational entropy
The entropies will be listed as multiplied by the temperature to get
units of energy

Electronic entropy                ...      0.00103729 Eh      0.65 kcal/mol
Vibrational entropy               ...      0.06272378 Eh     39.36 kcal/mol
Rotational entropy                ...      0.01809226 Eh     11.35 kcal/mol
Translational entropy             ...      0.02134978 Eh     13.40 kcal/mol
-----------------------------------------------------------------------
Final entropy term                ...      0.10320310 Eh     64.76 kcal/mol

In case the symmetry of your molecule has not been determined correctly
or in case you have a reason to use a different symmetry number we print 
out the resulting rotational entropy values for sn=1,12:

 non-linear molecules -----------------------------------
|  sn= 1 | S(rot)=       0.01809226 Eh     11.35 kcal/mol|
|  sn= 2 | S(rot)=       0.01743780 Eh     10.94 kcal/mol|
|  sn= 3 | S(rot)=       0.01705497 Eh     10.70 kcal/mol|
|  sn= 4 | S(rot)=       0.01678334 Eh     10.53 kcal/mol|
|  sn= 5 | S(rot)=       0.01657266 Eh     10.40 kcal/mol|
|  sn= 6 | S(rot)=       0.01640051 Eh     10.29 kcal/mol|
|  sn= 7 | S(rot)=       0.01625497 Eh     10.20 kcal/mol|
|  sn= 8 | S(rot)=       0.01612889 Eh     10.12 kcal/mol|
|  sn= 9 | S(rot)=       0.01601768 Eh     10.05 kcal/mol|
|  sn=10 | S(rot)=       0.01591820 Eh      9.99 kcal/mol|
|  sn=11 | S(rot)=       0.01582821 Eh      9.93 kcal/mol|
|  sn=12 | S(rot)=       0.01574605 Eh      9.88 kcal/mol|
 linear molecules ---------------------------------------
|  Dinfh | S(rot)=       0.01134488 Eh      7.12 kcal/mol|
|  Cinfv | S(rot)=       0.01199934 Eh      7.53 kcal/mol|
 --------------------------------------------------------


-------------------
GIBBS FREE ENERGY
-------------------

The Gibbs free energy is G = H - T*S

Total enthalpy                    ...  -2604.62942899 Eh 
Total entropy correction          ...     -0.10320310 Eh    -64.76 kcal/mol
-----------------------------------------------------------------------
Final Gibbs free energy         ...  -2604.73263209 Eh

For completeness - the Gibbs free energy minus the electronic energy
G-E(el)                           ...      0.45899358 Eh    288.02 kcal/mol



--------------------------------
SUGGESTED CITATIONS FOR THIS RUN
--------------------------------

Below you find a list of papers that are relevant to this ORCA run
We neither can nor want to force you to cite these papers, but we appreciate if you do
You receive ORCA, which is the product of decades of hard work by many enthusiastic individuals, for free
The only thing we kindly ask in return is that you cite our papers,
We deeply appreciate it, if you show your appreciation for ORCA by not just citing the generic ORCA reference.

Please note that relegating all ORCA citations to the supporting information does *not* help us.
SI sections are not indexed - citations you put there will not count into any citation statistics
But we need these citations in order to attract the funding resources that allow us to do what we are doing

Therefore, if you are a happy ORCA user, please consider citing a few of the papers listed below in the main body of your paper

In addition to the list printed below, the program has created the file FMN_s0.bibtex that contains the list in bibtex format
You can import this file easily into all common literature databanks and citation aid programs


List of essential papers. We consider these as the minimum necessary citations

  1. Neese,F.
     Software update: the ORCA program system, version 5.0
     WIRES Comput. Molec. Sci., 2022 12(1)e1606
     doi.org/10.1002/wcms.1606

List of papers to cite with high priority. The work reported in these papers was absolutely
necessary for this run to complete.
Our perspective: the developers of density functionals and basis sets usually get cited in chemistry papers
Good! But without the algorithms to do something with them, the functionals or basis sets would not do anything.
Hence, in our opinion, the algorithm design and method developments papers are equally worthy of getting cited

  1. Bykov,D.; Petrenko,T.; Izsak,R.; Kossmann,S.; Becker,U.; Valeev,E.; Neese,F.
     Efficient implementation of the analytic second derivatives of Hartree-Fock and hybrid DFT energies: a detailed analysis of different approximations
     Molec. Phys., 2015 113 1961-1977
     doi.org/10.1080/00268976.2015.1025114
  2. Stoychev,G.L.; Auer,A.A.; Neese,F.
     Automatic Generation of Auxiliary Basis Sets
     J. Theo. Comp. Chem., 2017 13 554-562
     doi.org/10.1021/acs.jctc.6b01041
  3. Kollmar,C.; Sivalingam,K.; Helmich-Paris,B.; Angeli,C.; Neese,F.
     A perturbation-based super-CI approach for the orbital optimization of a CASSCF wave function
     J. Comput. Chem., 2019 40 1463-1470
     doi.org/10.1002/jcc.25801
  4. Garcia-Rates,M.; Neese,F.
     Effect of the Solute Cavity on the Solvation Energy and its Derivatives within the Framework of the Gaussian Charge Scheme
     J. Comput. Chem., 2020 41 922-939
     doi.org/10.1002/jcc.26139
  5. Neese,F.
     The SHARK Integral Generation and Digestion System
     J. Comp. Chem., 2022  1-16
     doi.org/10.1002/jcc.26942
  6. Ugandi,M.; Roemelt,M.
     A recursive formulation of one-electron coupling coefficients for spin-adapted configuration interaction calculations featuring many unpaired electrons
     Int. J. Quantum Chem., 2023 123 e27045
     doi.org/10.1002/qua.27045

List of suggested additional citations. These are papers that are important in the 'surrounding' of 
of this run, or papers that preceded the highly important papers. If you like your results we are grateful for a citation.

  1. Neese,F.
     The ORCA program system
     WIRES Comput. Molec. Sci., 2012 2(1)73-78
     doi.org/10.1002/wcms.81
  2. Neese,F.
     Software update: the ORCA program system, version 4.0
     WIRES Comput. Molec. Sci., 2018 8(1)1-6
     doi.org/10.1002/wcms.1327
  3. Neese,F.; Wennmohs,F.; Becker,U.; Riplinger,C.
     The ORCA quantum chemistry program package
     J. Chem. Phys., 2020 152 Art. No. L224108
     doi.org/10.1063/5.0004608

List of optional additional citations

  1. Neese,F.
     Approximate second-order SCF convergence for spin unrestricted wavefunctions
     Chem. Phys. Lett., 2000 325(1-3)93-98
     doi.org/10.1016/s0009-2614(00)00662-x

Timings for individual modules:

Sum of individual times          ...    65268.154 sec (=1087.803 min)
Startup calculation              ...       13.535 sec (=   0.226 min)   0.0 %
SCF iterations                   ...        5.210 sec (=   0.087 min)   0.0 %
CASSCF iterations                ...     4452.208 sec (=  74.203 min)   6.8 %
Property integrals               ...        1.998 sec (=   0.033 min)   0.0 %
Property calculations            ...        1.375 sec (=   0.023 min)   0.0 %
SCF Gradient evaluation          ...       19.901 sec (=   0.332 min)   0.0 %
Numerical frequency calculation  ...    60773.926 sec (=1012.899 min)  93.1 %
                             ****ORCA TERMINATED NORMALLY****
TOTAL RUN TIME: 0 days 17 hours 26 minutes 35 seconds 972 msec
